Index,Name,CANON_SMILES,Temperature (K),Inverse temperature (1/K),Viscosity (cP),log(Viscosity),MD_density,MD_FV,MD_Rg,MD_SP_E,MD_SP_V,MD_SP,MD_HV,MD_RMSD,Reference
841,methylcyclopentane,CC1CCCC1,303.1,0.003299241,0.45,-0.346787486,0.739652361,0.31,21.89808911,0.715439271,15.56099705,15.57747281,7.201496127,30.13542574,"Diego Alonso Saldana, Laurie Starck, Pascal Mougin, Bernard Rousseau, Nicolas Ferrando, and Benoit Creton. Prediction of density and viscosity of biofuel compounds using machine learning methods. Energy & fuels, 26(4):2416-2426, 2012."
842,methylcyclopentane,CC1CCCC1,303.15,0.003298697,0.456,-0.341035157,0.729951354,0.33,21.99815842,0.706882764,15.3297567,15.34609147,7.092117818,30.23577228,"WE Wasburn. International critical tables of numerical data, physics, chemistry and technology. 1st electronic edition. Knovel: Norwich, NY, 2003."
843,methylcyclopentane,CC1CCCC1,313.1,0.003193868,0.4,-0.397940009,0.717051644,0.51,22.13767327,0.684246458,14.97700212,14.99267836,6.927871966,30.49942574,"Diego Alonso Saldana, Laurie Starck, Pascal Mougin, Bernard Rousseau, Nicolas Ferrando, and Benoit Creton. Prediction of density and viscosity of biofuel compounds using machine learning methods. Energy & fuels, 26(4):2416-2426, 2012."
844,methylcyclopentane,CC1CCCC1,323.1,0.003095017,0.36,-0.443697499,0.701195274,0.75,22.28946535,0.667996344,14.57996688,14.59530448,6.753053422,30.68187129,"Diego Alonso Saldana, Laurie Starck, Pascal Mougin, Bernard Rousseau, Nicolas Ferrando, and Benoit Creton. Prediction of density and viscosity of biofuel compounds using machine learning methods. Energy & fuels, 26(4):2416-2426, 2012."
845,methylcyclopentane,CC1CCCC1,333.1,0.003002101,0.33,-0.48148606,0.70146813,0.75,22.29586139,0.656302947,14.54681194,14.56165535,6.742411213,30.75616832,"Diego Alonso Saldana, Laurie Starck, Pascal Mougin, Bernard Rousseau, Nicolas Ferrando, and Benoit Creton. Prediction of density and viscosity of biofuel compounds using machine learning methods. Energy & fuels, 26(4):2416-2426, 2012."
846,methylcyclopentane,CC1CCCC1,343.1,0.002914602,0.3,-0.522878745,0.686677536,0.85,22.45186139,0.641789685,14.16652991,14.18110053,6.572846382,30.91828713,"Diego Alonso Saldana, Laurie Starck, Pascal Mougin, Bernard Rousseau, Nicolas Ferrando, and Benoit Creton. Prediction of density and viscosity of biofuel compounds using machine learning methods. Energy & fuels, 26(4):2416-2426, 2012."
847,methylcyclopentane,CC1CCCC1,353.1,0.002832059,0.27,-0.568636236,0.672788504,0.98,22.59570297,0.618881638,13.81733731,13.83124606,6.421322974,31.18269307,"Diego Alonso Saldana, Laurie Starck, Pascal Mougin, Bernard Rousseau, Nicolas Ferrando, and Benoit Creton. Prediction of density and viscosity of biofuel compounds using machine learning methods. Energy & fuels, 26(4):2416-2426, 2012."
848,methylcyclohexane,CC1CCCCC1,273.1,0.003661662,0.99,-0.004364805,0.788709951,0.11,21.43417822,0.69201426,16.42970156,16.44429562,8.588752449,29.41987129,"Diego Alonso Saldana, Laurie Starck, Pascal Mougin, Bernard Rousseau, Nicolas Ferrando, and Benoit Creton. Prediction of density and viscosity of biofuel compounds using machine learning methods. Energy & fuels, 26(4):2416-2426, 2012."
849,methylcyclohexane,CC1CCCCC1,288.15,0.003470415,0.78,-0.107905397,0.777870987,0.14,21.53243564,0.673821572,16.10745461,16.12156927,8.413704976,29.67176238,"WE Wasburn. International critical tables of numerical data, physics, chemistry and technology. 1st electronic edition. Knovel: Norwich, NY, 2003."
850,methylcyclohexane,CC1CCCCC1,293.1,0.003411805,0.73,-0.13667714,0.769974727,0.18,21.59990099,0.653437187,15.89615049,15.90959874,8.297022299,29.73613861,"Diego Alonso Saldana, Laurie Starck, Pascal Mougin, Bernard Rousseau, Nicolas Ferrando, and Benoit Creton. Prediction of density and viscosity of biofuel compounds using machine learning methods. Energy & fuels, 26(4):2416-2426, 2012."
851,methylcyclohexane,CC1CCCCC1,298.1,0.003354579,0.68,-0.167491087,0.762470723,0.19,21.6749505,0.640735006,15.6943888,15.70749128,8.186200448,29.81692079,"Diego Alonso Saldana, Laurie Starck, Pascal Mougin, Bernard Rousseau, Nicolas Ferrando, and Benoit Creton. Prediction of density and viscosity of biofuel compounds using machine learning methods. Energy & fuels, 26(4):2416-2426, 2012."
852,methylcyclohexane,CC1CCCCC1,303.15,0.003298697,0.627,-0.202732459,0.756642002,0.26,21.73326733,0.639827621,15.5403578,15.5535536,8.105482458,29.84625743,"WE Wasburn. International critical tables of numerical data, physics, chemistry and technology. 1st electronic edition. Knovel: Norwich, NY, 2003."
853,methylcyclohexane,CC1CCCCC1,313.1,0.003193868,0.56,-0.251811973,0.751191909,0.36,21.78517822,0.632809436,15.37777919,15.39082047,8.022384455,29.95968317,"Diego Alonso Saldana, Laurie Starck, Pascal Mougin, Bernard Rousseau, Nicolas Ferrando, and Benoit Creton. Prediction of density and viscosity of biofuel compounds using machine learning methods. Energy & fuels, 26(4):2416-2426, 2012."
854,methylcyclohexanone,CC1CCCCC1=O,293.15,0.003411223,1.76,0.245512668,0.92253958,0.04,21.60931683,7.081356312,18.11485358,19.44985861,11.57613921,29.72667327,"WE Wasburn. International critical tables of numerical data, physics, chemistry and technology. 1st electronic edition. Knovel: Norwich, NY, 2003."
855,p-methylcyclohexanone,CC1CCCCC1=O,363.15,0.002753683,0.69,-0.161150909,0.858255447,0.25,22.14148515,6.350655571,16.44029878,17.6243974,10.42462935,30.52907921,"WE Wasburn. International critical tables of numerical data, physics, chemistry and technology. 1st electronic edition. Knovel: Norwich, NY, 2003."
856,"trans-1,2-Dimethylcyclohexane",CC1CCCCC1C,298.15,0.003354016,0.77,-0.113509275,0.77728319,0.28,21.5550297,0.63041274,15.64636698,15.6590937,9.05337202,29.61110891,"Valentin Goussard, Francois Duprat, Jean-Luc Ploix, G erard Dreyfus, Veronique Nardello-Rataj, and Jean-Marie Aubry. A new machine-learning tool for fast estimation of liquid viscosity. application to cosmetic oils. Journal of Chemical Information and Modeling, 60(4):2012-2023, 2020."
857,o-hexahydrocresol,CC1CCCCC1O,312.25,0.003202562,6.97,0.843232778,0.904799263,0.09,21.20334653,13.33204478,16.57991854,21.27575768,14.27419057,28.88190099,"WE Wasburn. International critical tables of numerical data, physics, chemistry and technology. 1st electronic edition. Knovel: Norwich, NY, 2003."
858,o-hexahydrocresol,CC1CCCCC1O,339.05,0.002949417,2.56,0.408239965,0.884101976,0.16,21.36882178,12.25274846,16.16172175,20.28195413,13.37231961,29.40145545,"WE Wasburn. International critical tables of numerical data, physics, chemistry and technology. 1st electronic edition. Knovel: Norwich, NY, 2003."
859,o-hexahydrocresol,CC1CCCCC1O,363.15,0.002753683,1.26,0.100370545,0.86137678,0.24,21.55924752,11.21988343,15.68771532,19.28788778,12.50894989,29.69856436,"WE Wasburn. International critical tables of numerical data, physics, chemistry and technology. 1st electronic edition. Knovel: Norwich, NY, 2003."
860,2-Methyltetrahydrofuran,CC1CCCO1,273.15,0.003660992,0.601,-0.221125528,0.874381691,0.08,21.70609901,5.039295311,17.37004133,18.08642498,8.244519616,29.91887129,"A Dean John et al. Lange's handbook of chemistry. In Universitas Of Tennese Knoxville, Fifthenth Edition, Mc. Graw Hill Inc, New York. Conference, 1999."
861,2-Methyltetrahydrofuran,CC1CCCO1,283.15,0.003531697,0.536,-0.27083521,0.860518402,0.12,21.81854455,4.889875028,17.01776331,17.70656088,8.063192651,30.08366337,"A Dean John et al. Lange's handbook of chemistry. In Universitas Of Tennese Knoxville, Fifthenth Edition, Mc. Graw Hill Inc, New York. Conference, 1999."
862,2-methyl tetrahydrofuran,CC1CCCO1,298.15,0.003354016,0.473151259,-0.325,0.838859233,0.22,22.01160396,4.680206146,16.47671198,17.12874081,7.792698166,30.29655446,"Gregory W Kau man and Peter C Jurs. Prediction of surface tension, viscosity, and thermal conductivity for common organic solvents using quantitative structure- property relationships. Journal of chemical information and computer sciences, 41(2):408-418, 2001."
863,Propyleneimine,CC1CN1,298.15,0.003354016,0.491,-0.308918508,0.6839888,0.98,23.2770297,4.934631997,13.76940131,14.6272062,4.861084278,32.19825743,"Sunghwan Kim, Paul A Thiessen, Tiejun Cheng, Jian Zhang, Asta Gindulyte, and Evan E Bolton. Pug-view: programmatic access to chemical annotations integrated in pubchem. Journal of cheminformatics, 11(1):1-11, 2019."
864,"1,2-Propylene oxide",CC1CO1,293.15,0.003411223,0.327,-0.485452247,0.763434439,0.56,23.28485149,7.492877461,15.08463561,16.84321821,5.740942558,32.2490099,"A Dean John et al. Lange's handbook of chemistry. In Universitas Of Tennese Knoxville, Fifthenth Edition, Mc. Graw Hill Inc, New York. Conference, 1999."
865,Propylene carbonate,CC1COC(=O)O1,298.15,0.003354016,2.5,0.397940009,1.201865889,0.01,22.14590099,14.68244744,21.65987503,26.16728082,14.49359599,30.64075248,"Valentin Goussard, Francois Duprat, Jean-Luc Ploix, G erard Dreyfus, Veronique Nardello-Rataj, and Jean-Marie Aubry. A new machine-learning tool for fast estimation of liquid viscosity. application to cosmetic oils. Journal of Chemical Information and Modeling, 60(4):2012-2023, 2020."
866,paraldehyde,CC1OC(C)OC(C)O1,288.15,0.003470415,1.31,0.117271296,1.078584707,0.02,21.31889109,9.131346195,19.05656276,21.13149583,13.64974804,29.3370297,"WE Wasburn. International critical tables of numerical data, physics, chemistry and technology. 1st electronic edition. Knovel: Norwich, NY, 2003."
867,paraldehyde,CC1OC(C)OC(C)O1,293.15,0.003411223,1.17,0.068185862,1.076447084,0.02,21.34077228,9.041338143,19.00165419,21.04318545,13.57636361,29.38016832,"WE Wasburn. International critical tables of numerical data, physics, chemistry and technology. 1st electronic edition. Knovel: Norwich, NY, 2003."
868,2-methyl-2-butene,CC=C(C)C,273.35,0.003658314,0.2529,-0.597051171,0.675716151,0.3,22.5769703,1.705895851,15.25739482,15.35271186,6.390392541,31.2110396,"WE Wasburn. International critical tables of numerical data, physics, chemistry and technology. 1st electronic edition. Knovel: Norwich, NY, 2003."
869,2-methyl-2-butene,CC=C(C)C,278.61,0.003589247,0.2406,-0.618704377,0.67124367,0.34,22.61823762,1.683599642,15.12367829,15.21734876,6.336468791,31.25340594,"WE Wasburn. International critical tables of numerical data, physics, chemistry and technology. 1st electronic edition. Knovel: Norwich, NY, 2003."
870,2-methyl-2-butene,CC=C(C)C,283.36,0.00352908,0.2306,-0.637140697,0.664869653,0.58,22.69509901,1.660336528,14.94860708,15.040799,6.266661362,31.34733663,"WE Wasburn. International critical tables of numerical data, physics, chemistry and technology. 1st electronic edition. Knovel: Norwich, NY, 2003."
871,2-methyl-2-butene,CC=C(C)C,288.97,0.003460567,0.2192,-0.65915945,0.654132672,0.64,22.82368317,1.604064973,14.66299842,14.75076866,6.15001759,31.54893069,"WE Wasburn. International critical tables of numerical data, physics, chemistry and technology. 1st electronic edition. Knovel: Norwich, NY, 2003."
872,2-Methyl-2-butene,CC=C(C)C,293.15,0.003411223,0.21,-0.677780705,0.654867365,0.52,22.80662376,1.615630358,14.66454454,14.75349985,6.154127742,31.49509901,"Dabir S Viswanath, Tushar K Ghosh, Dasika HL Prasad, Nidamarty VK Dutt, Kalipatnapu Y Rani, Dabir S Viswanath, Tushar K Ghosh, Dasika HL Prasad, Nidamarty VK Dutt, and Kalipatnapu Y Rani. Correlations and estimation of pure liquid viscosity.Viscosity of Liquids: Theory, Estimation, Experiment, and Data, pages 135-405, 2007."
873,2-methyl-2-butene,CC=C(C)C,293.18,0.003410874,0.2114,-0.674895017,0.652440963,0.64,22.83444554,1.597721178,14.60760892,14.69502912,6.130675049,31.60642574,"WE Wasburn. International critical tables of numerical data, physics, chemistry and technology. 1st electronic edition. Knovel: Norwich, NY, 2003."
874,2-methyl-2-butene,CC=C(C)C,298.9,0.003345601,0.2015,-0.69572495,0.659124871,0.55,22.76415842,1.605861035,14.74514845,14.83257511,6.189063162,31.44175248,"WE Wasburn. International critical tables of numerical data, physics, chemistry and technology. 1st electronic edition. Knovel: Norwich, NY, 2003."
875,2-methyl-2-butene,CC=C(C)C,303.84,0.003291206,0.1931,-0.714217726,0.638061747,0.69,23.01086139,1.541741179,14.21106484,14.29467609,5.971983373,31.79521782,"WE Wasburn. International critical tables of numerical data, physics, chemistry and technology. 1st electronic edition. Knovel: Norwich, NY, 2003."
876,2-methyl-2-butene,CC=C(C)C,305.74,0.003270753,0.1903,-0.720561212,0.634230905,0.89,23.06523762,1.519288642,14.11174766,14.19357805,5.932059944,31.81261386,"WE Wasburn. International critical tables of numerical data, physics, chemistry and technology. 1st electronic edition. Knovel: Norwich, NY, 2003."
877,3-Nitro-2-pentene,CC=C(CC)[N+](=O)[O-],303.15,0.003298697,0.93,-0.031517051,0.988181942,0.08,22.5029604,9.67567289,18.21108822,20.62195252,12.44442743,31.02974257,"Dabir S Viswanath, Tushar K Ghosh, Dasika HL Prasad, Nidamarty VK Dutt, Kalipatnapu Y Rani, Dabir S Viswanath, Tushar K Ghosh, Dasika HL Prasad, Nidamarty VK Dutt, and Kalipatnapu Y Rani. Correlations and estimation of pure liquid viscosity.Viscosity of Liquids: Theory, Estimation, Experiment, and Data, pages 135-405, 2007."
878,Isoeugenol,CC=Cc1ccc(O)c(OC)c1,293.15,0.003411223,7.476,0.873669293,1.070132451,0.02,21.9979505,9.658376741,19.26570096,21.55141492,17.61618941,27.60063366,"Sunghwan Kim, Paul A Thiessen, Tiejun Cheng, Jian Zhang, Asta Gindulyte, and Evan E Bolton. Pug-view: programmatic access to chemical annotations integrated in pubchem. Journal of cheminformatics, 11(1):1-11, 2019."
879,Acetaldehyde,CC=O,273.15,0.003660992,0.2797,-0.553307534,0.80334655,0.13,23.52578218,14.03662991,16.57108576,21.71707545,6.724166139,32.66131683,"A Dean John et al. Lange's handbook of chemistry. In Universitas Of Tennese Knoxville, Fifthenth Edition, Mc. Graw Hill Inc, New York. Conference, 1999."
880,Acetaldehyde,CC=O,282.65,0.003537944,0.253,-0.596879479,0.785505626,0.25,23.70230693,13.72242307,16.16608541,21.20494893,6.588811361,32.88513861,"Sunghwan Kim, Paul A Thiessen, Tiejun Cheng, Jian Zhang, Asta Gindulyte, and Evan E Bolton. Pug-view: programmatic access to chemical annotations integrated in pubchem. Journal of cheminformatics, 11(1):1-11, 2019."
881,Acetaldehyde,CC=O,283.15,0.003531697,0.2557,-0.592269272,0.79619574,0.22,23.59045545,13.88228429,16.36042109,21.45655886,6.650813952,32.76061386,"A Dean John et al. Lange's handbook of chemistry. In Universitas Of Tennese Knoxville, Fifthenth Edition, Mc. Graw Hill Inc, New York. Conference, 1999."
882,ethyl bromide,CCBr,273.49,0.003656441,0.4759,-0.322484295,1.565681003,0.08,24.355,8.226429857,17.77719604,19.58842416,6.926266632,33.78709901,"WE Wasburn. International critical tables of numerical data, physics, chemistry and technology. 1st electronic edition. Knovel: Norwich, NY, 2003."
883,ethyl bromide,CCBr,278.33,0.003592857,0.4525,-0.344381417,1.552973158,0.1,24.41254455,8.145777716,17.60489917,19.39817771,6.863719589,33.88318812,"WE Wasburn. International critical tables of numerical data, physics, chemistry and technology. 1st electronic edition. Knovel: Norwich, NY, 2003."
884,ethyl bromide,CCBr,282.82,0.003535818,0.4327,-0.363813105,1.540213862,0.11,24.48949505,8.069960516,17.43222694,19.20960992,6.801817487,34.01456436,"WE Wasburn. International critical tables of numerical data, physics, chemistry and technology. 1st electronic edition. Knovel: Norwich, NY, 2003."
885,ethyl bromide,CCBr,288.61,0.003464883,0.4087,-0.388595362,1.526609089,0.15,24.55978218,7.976616165,17.25089708,19.0058406,6.736081957,34.10948515,"WE Wasburn. International critical tables of numerical data, physics, chemistry and technology. 1st electronic edition. Knovel: Norwich, NY, 2003."
886,ethyl bromide,CCBr,292.35,0.003420558,0.3973,-0.400881435,1.516687897,0.12,24.6120198,7.909797043,17.11137169,18.85116481,6.683276288,34.12890099,"WE Wasburn. International critical tables of numerical data, physics, chemistry and technology. 1st electronic edition. Knovel: Norwich, NY, 2003."
887,ethyl bromide,CCBr,293.05,0.003412387,0.3968,-0.401428337,1.514674006,0.21,24.62967327,7.903845072,17.08232825,18.8223194,6.674096346,34.18779208,"WE Wasburn. International critical tables of numerical data, physics, chemistry and technology. 1st electronic edition. Knovel: Norwich, NY, 2003."
888,Ethyl bromide,CCBr,293.15,0.003411223,0.4,-0.397940009,1.518572575,0.15,24.60658416,7.907593025,17.13019538,18.86733426,6.687753948,34.12061386,"Dabir S Viswanath, Tushar K Ghosh, Dasika HL Prasad, Nidamarty VK Dutt, Kalipatnapu Y Rani, Dabir S Viswanath, Tushar K Ghosh, Dasika HL Prasad, Nidamarty VK Dutt, and Kalipatnapu Y Rani. Correlations and estimation of pure liquid viscosity.Viscosity of Liquids: Theory, Estimation, Experiment, and Data, pages 135-405, 2007."
889,ethyl bromide,CCBr,293.69,0.003404951,0.3903,-0.408601449,1.517469485,0.15,24.61139604,7.926929899,17.11850405,18.86484288,6.69164978,34.15008911,"WE Wasburn. International critical tables of numerical data, physics, chemistry and technology. 1st electronic edition. Knovel: Norwich, NY, 2003."
890,ethyl bromide,CCBr,298.43,0.00335087,0.3734,-0.427825686,1.51860506,0.14,24.60092079,7.895312411,17.1163344,18.84961613,6.686652238,34.10538614,"WE Wasburn. International critical tables of numerical data, physics, chemistry and technology. 1st electronic edition. Knovel: Norwich, NY, 2003."
891,ethyl bromide,CCBr,303.18,0.003298371,0.3581,-0.445995679,1.505818704,0.24,24.67327723,7.814713205,16.946382,18.66151016,6.62579862,34.21684158,"WE Wasburn. International critical tables of numerical data, physics, chemistry and technology. 1st electronic edition. Knovel: Norwich, NY, 2003."
892,ethyl bromide,CCBr,309.3,0.003233107,0.3394,-0.469288162,1.485150388,0.29,24.78955446,7.697762943,16.66969869,18.36131529,6.526874749,34.37282178,"WE Wasburn. International critical tables of numerical data, physics, chemistry and technology. 1st electronic edition. Knovel: Norwich, NY, 2003."
893,ethyl bromide,CCBr,319.15,0.003133323,0.3037,-0.517555208,1.462634557,0.27,24.91973267,7.552473377,16.37134126,18.02950613,6.422461801,34.59589109,"WE Wasburn. International critical tables of numerical data, physics, chemistry and technology. 1st electronic edition. Knovel: Norwich, NY, 2003."
894,ethyl bromide,CCBr,350.15,0.002855919,0.2336,-0.631527162,1.380685351,0.64,25.39034653,7.072481109,15.29348068,16.84975354,6.051413547,35.22437624,"WE Wasburn. International critical tables of numerical data, physics, chemistry and technology. 1st electronic edition. Knovel: Norwich, NY, 2003."
895,propane,CCC,240.0,0.004166667,0.18,-0.744727495,0.563990145,0.5,22.76966337,0.529081096,13.99422693,14.00425325,4.141841829,31.55455446,"Diego Alonso Saldana, Laurie Starck, Pascal Mougin, Bernard Rousseau, Nicolas Ferrando, and Benoit Creton. Prediction of density and viscosity of biofuel compounds using machine learning methods. Energy & fuels, 26(4):2416-2426, 2012."
896,propane,CCC,260.0,0.003846154,0.14,-0.853871964,0.531485448,1.12,23.22630693,0.478959837,13.04025808,13.04908929,3.893309644,32.1369901,"Diego Alonso Saldana, Laurie Starck, Pascal Mougin, Bernard Rousseau, Nicolas Ferrando, and Benoit Creton. Prediction of density and viscosity of biofuel compounds using machine learning methods. Energy & fuels, 26(4):2416-2426, 2012."
897,propane,CCC,270.0,0.003703704,0.13,-0.886056648,0.520312612,1.57,23.39517822,0.4636355,12.71302613,12.72150985,3.814704613,32.31736634,"Diego Alonso Saldana, Laurie Starck, Pascal Mougin, Bernard Rousseau, Nicolas Ferrando, and Benoit Creton. Prediction of density and viscosity of biofuel compounds using machine learning methods. Energy & fuels, 26(4):2416-2426, 2012."