Index,Name,CANON_SMILES,Temperature (K),Inverse temperature (1/K),Viscosity (cP),log(Viscosity),MD_density,MD_FV,MD_Rg,MD_SP_E,MD_SP_V,MD_SP,MD_HV,MD_RMSD,Reference
551,Citronellol,CC(C)=CCCC(C)CCO,293.15,0.003411223,11.1,1.045322979,0.863081123,0.04,21.35265347,12.05431249,16.41270247,20.3642345,18.52852457,28.24813861,"Sunghwan Kim, Paul A Thiessen, Tiejun Cheng, Jian Zhang, Asta Gindulyte, and Evan E Bolton. Pug-view: programmatic access to chemical annotations integrated in pubchem. Journal of cheminformatics, 11(1):1-11, 2019."
552,Citronellol,CC(C)=CCCC(C)CCO,313.15,0.003193358,5.33,0.726727209,0.831123092,0.12,21.61906931,11.33382758,15.68917502,19.35529416,17.45747588,29.52609901,"Sunghwan Kim, Paul A Thiessen, Tiejun Cheng, Jian Zhang, Asta Gindulyte, and Evan E Bolton. Pug-view: programmatic access to chemical annotations integrated in pubchem. Journal of cheminformatics, 11(1):1-11, 2019."
553,acetone,CC(C)=O,233.15,0.004289084,0.713,-0.14691047,0.883223931,0.02,22.18449505,12.73798994,17.94413814,22.00569358,8.074181827,30.74243564,"WE Wasburn. International critical tables of numerical data, physics, chemistry and technology. 1st electronic edition. Knovel: Norwich, NY, 2003."
554,acetone,CC(C)=O,242.85,0.004117768,0.613,-0.212539526,0.881155799,0.02,22.20251485,12.66900623,17.84847873,21.88776546,8.029771545,30.73356436,"WE Wasburn. International critical tables of numerical data, physics, chemistry and technology. 1st electronic edition. Knovel: Norwich, NY, 2003."
555,acetone,CC(C)=O,252.75,0.003956479,0.516,-0.287350298,0.866802355,0.02,22.32330693,12.43267854,17.50796028,21.47329447,7.886611016,30.91993069,"WE Wasburn. International critical tables of numerical data, physics, chemistry and technology. 1st electronic edition. Knovel: Norwich, NY, 2003."
556,acetone,CC(C)=O,262.55,0.003808798,0.451,-0.345823458,0.848185584,0.06,22.48418812,12.1546134,17.06430605,20.95060458,7.705249001,31.22988119,"WE Wasburn. International critical tables of numerical data, physics, chemistry and technology. 1st electronic edition. Knovel: Norwich, NY, 2003."
557,acetone,CC(C)=O,281.01,0.003558592,0.3638,-0.439137305,0.823628097,0.12,22.7130099,11.76340666,16.46502903,20.23554846,7.45977338,31.48905941,"WE Wasburn. International critical tables of numerical data, physics, chemistry and technology. 1st electronic edition. Knovel: Norwich, NY, 2003."
558,acetone,CC(C)=O,284.87,0.003510373,0.3495,-0.45655282,0.817954272,0.11,22.75614851,11.6798031,16.33917415,20.08456168,7.411992079,31.51655446,"WE Wasburn. International critical tables of numerical data, physics, chemistry and technology. 1st electronic edition. Knovel: Norwich, NY, 2003."
559,acetone,CC(C)=O,288.15,0.003470415,0.345,-0.462180905,0.817742506,0.14,22.76316832,11.64853152,16.33177035,20.06035682,7.40379068,31.57548515,"WE Wasburn. International critical tables of numerical data, physics, chemistry and technology. 1st electronic edition. Knovel: Norwich, NY, 2003."
560,acetone,CC(C)=O,288.39,0.003467527,0.3376,-0.471597562,0.820818012,0.14,22.72955446,11.69033434,16.37381184,20.11886837,7.418432102,31.49946535,"WE Wasburn. International critical tables of numerical data, physics, chemistry and technology. 1st electronic edition. Knovel: Norwich, NY, 2003."
561,acetone,CC(C)=O,292.17,0.003422665,0.3258,-0.48704892,0.817986557,0.15,22.7589901,11.63806059,16.3017833,20.02985003,7.388990312,31.5409703,"WE Wasburn. International critical tables of numerical data, physics, chemistry and technology. 1st electronic edition. Knovel: Norwich, NY, 2003."
562,acetone,CC(C)=O,296.16,0.003376553,0.3131,-0.504316932,0.806607384,0.21,22.86805941,11.48047117,16.0569639,19.73905256,7.293945363,31.71174257,"WE Wasburn. International critical tables of numerical data, physics, chemistry and technology. 1st electronic edition. Knovel: Norwich, NY, 2003."
563,acetone,CC(C)=O,300.37,0.003329227,0.3007,-0.521866572,0.804698985,0.18,22.88639604,11.42945647,15.9995319,19.66266346,7.266283556,31.66417822,"WE Wasburn. International critical tables of numerical data, physics, chemistry and technology. 1st electronic edition. Knovel: Norwich, NY, 2003."
564,acetone,CC(C)=O,303.15,0.003298697,0.296,-0.528708289,0.801887108,0.14,22.90778218,11.37855867,15.93760977,19.58269389,7.24087839,31.77157426,"WE Wasburn. International critical tables of numerical data, physics, chemistry and technology. 1st electronic edition. Knovel: Norwich, NY, 2003."
565,acetone,CC(C)=O,305.58,0.003272465,0.2863,-0.543178652,0.798443419,0.2,22.94745545,11.33833401,15.84792492,19.48634888,7.208899226,31.81173267,"WE Wasburn. International critical tables of numerical data, physics, chemistry and technology. 1st electronic edition. Knovel: Norwich, NY, 2003."
566,acetone,CC(C)=O,309.15,0.003234676,0.2772,-0.557206774,0.792611685,0.27,23.00363366,11.25737464,15.71816431,19.33370437,7.160775437,31.82179208,"WE Wasburn. International critical tables of numerical data, physics, chemistry and technology. 1st electronic edition. Knovel: Norwich, NY, 2003."
567,acetone,CC(C)=O,313.19,0.00319295,0.2675,-0.572676214,0.778164701,0.28,23.14231683,11.05813295,15.39954744,18.95868468,7.034172582,32.10968317,"WE Wasburn. International critical tables of numerical data, physics, chemistry and technology. 1st electronic edition. Knovel: Norwich, NY, 2003."
568,acetone,CC(C)=O,317.27,0.00315189,0.2584,-0.587707491,0.785149741,0.26,23.07131683,11.12301878,15.52773562,19.1006662,7.080784467,31.96827723,"WE Wasburn. International critical tables of numerical data, physics, chemistry and technology. 1st electronic edition. Knovel: Norwich, NY, 2003."
569,acetone,CC(C)=O,320.77,0.003117499,0.2503,-0.60153915,0.774582179,0.34,23.17463366,10.97767678,15.29963282,18.83057918,6.992134997,32.07626733,"WE Wasburn. International critical tables of numerical data, physics, chemistry and technology. 1st electronic edition. Knovel: Norwich, NY, 2003."
570,acetone,CC(C)=O,325.35,0.003073613,0.2405,-0.618884919,0.769039707,0.46,23.23538614,10.89634231,15.15378315,18.66468585,6.934762584,32.26970297,"WE Wasburn. International critical tables of numerical data, physics, chemistry and technology. 1st electronic edition. Knovel: Norwich, NY, 2003."
571,acetone,CC(C)=O,327.01,0.00305801,0.2377,-0.623970818,0.763251967,0.45,23.29262376,10.81872103,15.03673713,18.52437959,6.890847857,32.3489802,"WE Wasburn. International critical tables of numerical data, physics, chemistry and technology. 1st electronic edition. Knovel: Norwich, NY, 2003."
572,isopropyl bromide,CC(C)Br,273.48,0.003656575,0.6021,-0.220331373,1.419160582,0.11,23.57540594,7.010120851,17.38901317,18.74893381,7.82500147,32.64606931,"WE Wasburn. International critical tables of numerical data, physics, chemistry and technology. 1st electronic edition. Knovel: Norwich, NY, 2003."
573,isopropyl bromide,CC(C)Br,278.27,0.003593632,0.5688,-0.245040412,1.423980048,0.09,23.54060396,7.025991088,17.4259519,18.78913258,7.841032928,32.59847525,"WE Wasburn. International critical tables of numerical data, physics, chemistry and technology. 1st electronic edition. Knovel: Norwich, NY, 2003."
574,isopropyl bromide,CC(C)Br,283.29,0.003529952,0.5371,-0.269944848,1.418664605,0.13,23.57260396,6.971155962,17.34122858,18.69007796,7.801385778,32.63350495,"WE Wasburn. International critical tables of numerical data, physics, chemistry and technology. 1st electronic edition. Knovel: Norwich, NY, 2003."
575,2-Bromopropane,CC(C)Br,288.15,0.003470415,0.536,-0.27083521,1.392866815,0.13,23.71823762,6.84443585,16.97822125,18.30599683,7.645216984,32.82530693,"A Dean John et al. Lange's handbook of chemistry. In Universitas Of Tennese Knoxville, Fifthenth Edition, Mc. Graw Hill Inc, New York. Conference, 1999."
576,isopropyl bromide,CC(C)Br,288.45,0.003466805,0.5068,-0.295163394,1.391363873,0.16,23.72267327,6.84443404,16.95228673,18.2819553,7.634864022,32.87727723,"WE Wasburn. International critical tables of numerical data, physics, chemistry and technology. 1st electronic edition. Knovel: Norwich, NY, 2003."
577,isopropyl bromide,CC(C)Br,293.43,0.003407968,0.4803,-0.318487413,1.403756179,0.1,23.65486139,6.869256407,17.10546674,18.43333119,7.698813736,32.72171287,"WE Wasburn. International critical tables of numerical data, physics, chemistry and technology. 1st electronic edition. Knovel: Norwich, NY, 2003."
578,isopropyl bromide,CC(C)Br,298.61,0.00334885,0.4551,-0.341893165,1.39292428,0.14,23.7120396,6.801386935,16.93428645,18.24917472,7.621869308,32.77634653,"WE Wasburn. International critical tables of numerical data, physics, chemistry and technology. 1st electronic edition. Knovel: Norwich, NY, 2003."
579,isopropyl bromide,CC(C)Br,303.09,0.00329935,0.4343,-0.362210171,1.383854186,0.17,23.76771287,6.748264596,16.79511632,18.10021452,7.561826812,32.96612871,"WE Wasburn. International critical tables of numerical data, physics, chemistry and technology. 1st electronic edition. Knovel: Norwich, NY, 2003."
580,2-Bromopropane,CC(C)Br,303.15,0.003298697,0.437,-0.359518563,1.387094204,0.16,23.74860396,6.758617171,16.84175213,18.14736202,7.581900625,32.87623762,"A Dean John et al. Lange's handbook of chemistry. In Universitas Of Tennese Knoxville, Fifthenth Edition, Mc. Graw Hill Inc, New York. Conference, 1999."
581,isopropyl bromide,CC(C)Br,309.05,0.003235722,0.4095,-0.387746094,1.363851793,0.2,23.88658416,6.63939679,16.51184262,17.79678713,7.440969163,33.12053465,"WE Wasburn. International critical tables of numerical data, physics, chemistry and technology. 1st electronic edition. Knovel: Norwich, NY, 2003."
582,isopropyl bromide,CC(C)Br,314.32,0.003181471,0.3894,-0.409604053,1.353398546,0.22,23.94208911,6.574208843,16.35513487,17.62711264,7.373617896,33.16713861,"WE Wasburn. International critical tables of numerical data, physics, chemistry and technology. 1st electronic edition. Knovel: Norwich, NY, 2003."
583,isopropyl bromide,CC(C)Br,319.51,0.003129792,0.3704,-0.431329022,1.34885837,0.28,23.97468317,6.533753464,16.272772,17.53560975,7.33651648,33.19072277,"WE Wasburn. International critical tables of numerical data, physics, chemistry and technology. 1st electronic edition. Knovel: Norwich, NY, 2003."
584,isopropyl bromide,CC(C)Br,324.06,0.003085848,0.3555,-0.449160395,1.346348426,0.19,23.98710891,6.506556579,16.23560087,17.49096954,7.323924333,33.23835644,"WE Wasburn. International critical tables of numerical data, physics, chemistry and technology. 1st electronic edition. Knovel: Norwich, NY, 2003."
585,isopropyl bromide,CC(C)Br,329.91,0.00303113,0.3371,-0.472241248,1.332524275,0.41,24.07078218,6.414458931,16.02839626,17.26437885,7.231110055,33.27813861,"WE Wasburn. International critical tables of numerical data, physics, chemistry and technology. 1st electronic edition. Knovel: Norwich, NY, 2003."
586,isobutane,CC(C)C,233.1,0.004290004,0.34,-0.468521083,0.648748242,0.11,21.99761386,0.574802785,15.32666621,15.33746542,5.500449797,30.33561386,"Diego Alonso Saldana, Laurie Starck, Pascal Mougin, Bernard Rousseau, Nicolas Ferrando, and Benoit Creton. Prediction of density and viscosity of biofuel compounds using machine learning methods. Energy & fuels, 26(4):2416-2426, 2012."
587,isobutane,CC(C)C,240.0,0.004166667,0.3,-0.522878745,0.637201023,0.21,22.12648515,0.557082385,14.99257295,15.0029469,5.384179816,30.50078218,"Diego Alonso Saldana, Laurie Starck, Pascal Mougin, Bernard Rousseau, Nicolas Ferrando, and Benoit Creton. Prediction of density and viscosity of biofuel compounds using machine learning methods. Energy & fuels, 26(4):2416-2426, 2012."
588,isobutane,CC(C)C,244.3,0.004093328,0.3,-0.522878745,0.633220064,0.26,22.16881188,0.552290901,14.86788918,14.87817067,5.341782404,30.62609901,"Diego Alonso Saldana, Laurie Starck, Pascal Mougin, Bernard Rousseau, Nicolas Ferrando, and Benoit Creton. Prediction of density and viscosity of biofuel compounds using machine learning methods. Energy & fuels, 26(4):2416-2426, 2012."
589,isobutane,CC(C)C,255.4,0.003915427,0.26,-0.585026652,0.618987764,0.61,22.34281188,0.532904455,14.4534057,14.46325276,5.202273969,30.79263366,"Diego Alonso Saldana, Laurie Starck, Pascal Mougin, Bernard Rousseau, Nicolas Ferrando, and Benoit Creton. Prediction of density and viscosity of biofuel compounds using machine learning methods. Energy & fuels, 26(4):2416-2426, 2012."
590,Isobutane,CC(C)C,263.15,0.003800114,0.238,-0.623423043,0.60732001,0.53,22.47923762,0.518116712,14.11801988,14.12755178,5.088324256,31.02122772,"Sunghwan Kim, Paul A Thiessen, Tiejun Cheng, Jian Zhang, Asta Gindulyte, and Evan E Bolton. Pug-view: programmatic access to chemical annotations integrated in pubchem. Journal of cheminformatics, 11(1):1-11, 2019."
591,isobutane,CC(C)C,266.5,0.003752345,0.23,-0.638272164,0.609422565,0.78,22.44852475,0.522900849,14.15468821,14.16436609,5.102969779,31.11183168,"Diego Alonso Saldana, Laurie Starck, Pascal Mougin, Bernard Rousseau, Nicolas Ferrando, and Benoit Creton. Prediction of density and viscosity of biofuel compounds using machine learning methods. Energy & fuels, 26(4):2416-2426, 2012."
592,isobutane,CC(C)C,277.5,0.003603604,0.21,-0.677780705,0.588076896,0.63,22.71711881,0.491620511,13.56635414,13.57528852,4.9048222,31.37811881,"Diego Alonso Saldana, Laurie Starck, Pascal Mougin, Bernard Rousseau, Nicolas Ferrando, and Benoit Creton. Prediction of density and viscosity of biofuel compounds using machine learning methods. Energy & fuels, 26(4):2416-2426, 2012."
593,isobutane,CC(C)C,288.8,0.003462604,0.18,-0.744727495,0.571914289,1.23,22.94170297,0.477963941,13.11882844,13.12755788,4.759904151,31.59967327,"Diego Alonso Saldana, Laurie Starck, Pascal Mougin, Bernard Rousseau, Nicolas Ferrando, and Benoit Creton. Prediction of density and viscosity of biofuel compounds using machine learning methods. Energy & fuels, 26(4):2416-2426, 2012."
594,isobutane,CC(C)C,299.9,0.003334445,0.17,-0.769551079,0.557257255,1.66,23.12862376,0.456816655,12.70777193,12.71601186,4.626935338,32.00656436,"Diego Alonso Saldana, Laurie Starck, Pascal Mougin, Bernard Rousseau, Nicolas Ferrando, and Benoit Creton. Prediction of density and viscosity of biofuel compounds using machine learning methods. Energy & fuels, 26(4):2416-2426, 2012."
595,isobutane,CC(C)C,311.0,0.003215434,0.15,-0.823908741,0.532540362,2.35,23.49559406,0.429554086,12.0534532,12.06113573,4.412816834,32.46243564,"Diego Alonso Saldana, Laurie Starck, Pascal Mougin, Bernard Rousseau, Nicolas Ferrando, and Benoit Creton. Prediction of density and viscosity of biofuel compounds using machine learning methods. Energy & fuels, 26(4):2416-2426, 2012."
596,isobutyric acid,CC(C)C(=O)O,276.84,0.003612195,1.761,0.245759356,1.005838834,0.02,21.8239703,18.95215058,18.33701981,26.37124059,15.10965014,30.0280198,"WE Wasburn. International critical tables of numerical data, physics, chemistry and technology. 1st electronic edition. Knovel: Norwich, NY, 2003."
597,isobutyric acid,CC(C)C(=O)O,302.48,0.003306004,1.137,0.055760465,0.975959812,0.09,22.04720792,18.15080891,17.6982734,25.35143263,14.46826944,30.46849505,"WE Wasburn. International critical tables of numerical data, physics, chemistry and technology. 1st electronic edition. Knovel: Norwich, NY, 2003."
598,isobutyric acid,CC(C)C(=O)O,315.68,0.003167765,0.945,-0.024568191,0.96715564,0.06,22.10866337,17.82956046,17.51915715,24.99659413,14.23175688,30.53770297,"WE Wasburn. International critical tables of numerical data, physics, chemistry and technology. 1st electronic edition. Knovel: Norwich, NY, 2003."
599,isobutyric acid,CC(C)C(=O)O,327.69,0.003051665,0.811,-0.090979146,0.956256992,0.05,22.20215842,17.50654206,17.28370307,24.6013673,13.97903658,30.63894059,"WE Wasburn. International critical tables of numerical data, physics, chemistry and technology. 1st electronic edition. Knovel: Norwich, NY, 2003."
600,isobutyric acid,CC(C)C(=O)O,343.64,0.002910022,0.674,-0.171340104,0.944069306,0.1,22.28922772,17.0780083,17.03035721,24.11861568,13.65817332,30.82754455,"WE Wasburn. International critical tables of numerical data, physics, chemistry and technology. 1st electronic edition. Knovel: Norwich, NY, 2003."
601,isobutyric acid,CC(C)C(=O)O,361.21,0.002768473,0.56,-0.251811973,0.928020769,0.11,22.42444554,16.64285124,16.68735439,23.56846528,13.32218548,30.90779208,"WE Wasburn. International critical tables of numerical data, physics, chemistry and technology. 1st electronic edition. Knovel: Norwich, NY, 2003."
602,isobutyric acid,CC(C)C(=O)O,372.09,0.002687522,0.499,-0.301899454,0.909226995,0.22,22.57109901,16.19692368,16.31490245,22.98993198,12.98055096,31.21958416,"WE Wasburn. International critical tables of numerical data, physics, chemistry and technology. 1st electronic edition. Knovel: Norwich, NY, 2003."
603,isobutyric acid,CC(C)C(=O)O,382.93,0.002611443,0.45,-0.346787486,0.908253318,0.25,22.58058416,16.06927707,16.28779462,22.88097176,12.89934309,31.19984158,"WE Wasburn. International critical tables of numerical data, physics, chemistry and technology. 1st electronic edition. Knovel: Norwich, NY, 2003."
604,isobutyric acid,CC(C)C(=O)O,394.12,0.002537298,0.407,-0.390405591,0.902718091,0.36,22.62124752,15.81201801,16.18492098,22.62729924,12.72670781,31.28625743,"WE Wasburn. International critical tables of numerical data, physics, chemistry and technology. 1st electronic edition. Knovel: Norwich, NY, 2003."
605,"2,2,3-Trimethylbutane",CC(C)C(C)(C)C,293.15,0.003411223,0.579,-0.237321436,0.708613091,0.29,21.69663366,0.43502122,14.68476017,14.69123045,7.877182576,29.83342574,"A Dean John et al. Lange's handbook of chemistry. In Universitas Of Tennese Knoxville, Fifthenth Edition, Mc. Graw Hill Inc, New York. Conference, 1999."
606,"2,2,3-trimethylbutane",CC(C)C(C)(C)C,298.15,0.003354016,0.55,-0.259637311,0.705165817,0.35,21.73722772,0.431209725,14.57577322,14.58217678,7.81435844,29.79845545,"Valentin Goussard, Francois Duprat, Jean-Luc Ploix, G erard Dreyfus, Veronique Nardello-Rataj, and Jean-Marie Aubry. A new machine-learning tool for fast estimation of liquid viscosity. application to cosmetic oils. Journal of Chemical Information and Modeling, 60(4):2012-2023, 2020."
607,diisopropyl,CC(C)C(C)C,273.15,0.003660992,0.495,-0.305394801,0.683729244,0.35,21.88630693,0.492311477,14.79068097,14.79890092,7.140274071,30.11490099,"WE Wasburn. International critical tables of numerical data, physics, chemistry and technology. 1st electronic edition. Knovel: Norwich, NY, 2003."
608,diisopropyl,CC(C)C(C)C,288.15,0.003470415,0.409,-0.388276692,0.674715854,0.37,21.96729703,0.476483897,14.51692853,14.52477624,7.012841354,30.19110891,"WE Wasburn. International critical tables of numerical data, physics, chemistry and technology. 1st electronic edition. Knovel: Norwich, NY, 2003."
609,diisopropyl,CC(C)C(C)C,293.15,0.003411223,0.385,-0.414539271,0.667158374,0.51,22.05283168,0.467229274,14.30670613,14.31435628,6.908389225,30.34235644,"WE Wasburn. International critical tables of numerical data, physics, chemistry and technology. 1st electronic edition. Knovel: Norwich, NY, 2003."
610,3-Methyl-2-butanol,CC(C)C(C)O,298.15,0.003354016,3.51,0.545307117,0.815975526,0.14,21.52481188,14.09127761,15.63563097,21.04906421,12.03248669,29.71123762,"A Dean John et al. Lange's handbook of chemistry. In Universitas Of Tennese Knoxville, Fifthenth Edition, Mc. Graw Hill Inc, New York. Conference, 1999."
611,isopropylcyclopentane,CC(C)C1CCCC1,273.1,0.003661662,0.92,-0.036212173,0.788659207,0.11,21.44484158,0.696612421,16.13258225,16.14764285,9.409982349,29.42742574,"Diego Alonso Saldana, Laurie Starck, Pascal Mougin, Bernard Rousseau, Nicolas Ferrando, and Benoit Creton. Prediction of density and viscosity of biofuel compounds using machine learning methods. Energy & fuels, 26(4):2416-2426, 2012."