Index,Name,CANON_SMILES,Temperature (K),Inverse temperature (1/K),Viscosity (cP),log(Viscosity),MD_density,MD_FV,MD_Rg,MD_SP_E,MD_SP_V,MD_SP,MD_HV,MD_RMSD,Reference
1689,n-nonylbenzene,CCCCCCCCCc1ccccc1,348.1,0.002872738,1.19,0.075546961,0.816061664,0.29,22.04132673,2.213933671,15.85396735,16.00812866,16.02927777,30.37860396,"Diego Alonso Saldana, Laurie Starck, Pascal Mougin, Bernard Rousseau, Nicolas Ferrando, and Benoit Creton. Prediction of density and viscosity of biofuel compounds using machine learning methods. Energy & fuels, 26(4):2416-2426, 2012."
1690,n-nonylbenzene,CCCCCCCCCc1ccccc1,353.1,0.002832059,1.11,0.045322979,0.814568,0.26,22.05789109,2.172294881,15.80449961,15.9534984,15.9626419,30.27753465,"Diego Alonso Saldana, Laurie Starck, Pascal Mougin, Bernard Rousseau, Nicolas Ferrando, and Benoit Creton. Prediction of density and viscosity of biofuel compounds using machine learning methods. Energy & fuels, 26(4):2416-2426, 2012."
1691,n-nonylbenzene,CCCCCCCCCc1ccccc1,358.1,0.002792516,1.04,0.017033339,0.804148298,0.28,22.14722772,2.137450125,15.53907579,15.68568814,15.65567482,30.50633663,"Diego Alonso Saldana, Laurie Starck, Pascal Mougin, Bernard Rousseau, Nicolas Ferrando, and Benoit Creton. Prediction of density and viscosity of biofuel compounds using machine learning methods. Energy & fuels, 26(4):2416-2426, 2012."
1692,n-nonylbenzene,CCCCCCCCCc1ccccc1,363.1,0.002754062,0.98,-0.008773924,0.798084025,0.36,22.20282178,2.106523758,15.39301104,15.53679284,15.49467635,30.47110891,"Diego Alonso Saldana, Laurie Starck, Pascal Mougin, Bernard Rousseau, Nicolas Ferrando, and Benoit Creton. Prediction of density and viscosity of biofuel compounds using machine learning methods. Energy & fuels, 26(4):2416-2426, 2012."
1693,n-nonylbenzene,CCCCCCCCCc1ccccc1,368.1,0.002716653,0.92,-0.036212173,0.795265176,0.34,22.22220792,2.085184227,15.31528223,15.45693275,15.40496388,30.56008911,"Diego Alonso Saldana, Laurie Starck, Pascal Mougin, Bernard Rousseau, Nicolas Ferrando, and Benoit Creton. Prediction of density and viscosity of biofuel compounds using machine learning methods. Energy & fuels, 26(4):2416-2426, 2012."
1694,n-nonylbenzene,CCCCCCCCCc1ccccc1,372.0,0.002688172,0.88,-0.055517328,0.787437077,0.53,22.30585149,2.045548492,15.11275043,15.25084511,15.16606089,30.69408911,"Diego Alonso Saldana, Laurie Starck, Pascal Mougin, Bernard Rousseau, Nicolas Ferrando, and Benoit Creton. Prediction of density and viscosity of biofuel compounds using machine learning methods. Energy & fuels, 26(4):2416-2426, 2012."
1695,n-nonylbenzene,CCCCCCCCCc1ccccc1,373.1,0.002680247,0.86,-0.065501549,0.793678912,0.41,22.24082178,2.060341005,15.25677992,15.39569977,15.32795103,30.63113861,"Diego Alonso Saldana, Laurie Starck, Pascal Mougin, Bernard Rousseau, Nicolas Ferrando, and Benoit Creton. Prediction of density and viscosity of biofuel compounds using machine learning methods. Energy & fuels, 26(4):2416-2426, 2012."
1696,n-nonylbenzene,CCCCCCCCCc1ccccc1,378.1,0.002644803,0.82,-0.086186148,0.793102077,0.27,22.25181188,2.080215734,15.23140223,15.37313746,15.30573741,30.57550495,"Diego Alonso Saldana, Laurie Starck, Pascal Mougin, Bernard Rousseau, Nicolas Ferrando, and Benoit Creton. Prediction of density and viscosity of biofuel compounds using machine learning methods. Energy & fuels, 26(4):2416-2426, 2012."
1697,n-nonylbenzene,CCCCCCCCCc1ccccc1,383.1,0.002610285,0.77,-0.113509275,0.786174679,0.39,22.31280198,2.01085348,15.06013924,15.19418974,15.10408451,30.67694059,"Diego Alonso Saldana, Laurie Starck, Pascal Mougin, Bernard Rousseau, Nicolas Ferrando, and Benoit Creton. Prediction of density and viscosity of biofuel compounds using machine learning methods. Energy & fuels, 26(4):2416-2426, 2012."
1698,n-nonylbenzene,CCCCCCCCCc1ccccc1,388.1,0.002576656,0.73,-0.13667714,0.782381209,0.51,22.35308911,2.005333211,14.94620187,15.08042949,14.96859068,30.79378218,"Diego Alonso Saldana, Laurie Starck, Pascal Mougin, Bernard Rousseau, Nicolas Ferrando, and Benoit Creton. Prediction of density and viscosity of biofuel compounds using machine learning methods. Energy & fuels, 26(4):2416-2426, 2012."
1699,n-nonylbenzene,CCCCCCCCCc1ccccc1,393.1,0.002543882,0.69,-0.161150909,0.780507798,0.43,22.36270297,1.985144192,14.89720356,15.02930388,14.91626023,30.7589703,"Diego Alonso Saldana, Laurie Starck, Pascal Mougin, Bernard Rousseau, Nicolas Ferrando, and Benoit Creton. Prediction of density and viscosity of biofuel compounds using machine learning methods. Energy & fuels, 26(4):2416-2426, 2012."
1700,n-nonylbenzene,CCCCCCCCCc1ccccc1,398.1,0.002511932,0.65,-0.187086643,0.766445048,0.8,22.50274257,1.921308923,14.56204596,14.68859452,14.54032226,30.98326733,"Diego Alonso Saldana, Laurie Starck, Pascal Mougin, Bernard Rousseau, Nicolas Ferrando, and Benoit Creton. Prediction of density and viscosity of biofuel compounds using machine learning methods. Energy & fuels, 26(4):2416-2426, 2012."
1701,nonylphenol,CCCCCCCCCc1ccccc1O,373.1,0.002680247,6.67,0.824125834,0.866303968,0.23,21.91117822,7.791396257,15.9569404,17.75865524,19.9144089,30.02879208,"Diego Alonso Saldana, Laurie Starck, Pascal Mougin, Bernard Rousseau, Nicolas Ferrando, and Benoit Creton. Prediction of density and viscosity of biofuel compounds using machine learning methods. Energy & fuels, 26(4):2416-2426, 2012."
1702,1-Octanol,CCCCCCCCO,288.15,0.003470415,10.64,1.026941628,0.824378309,0.11,21.35906931,12.94373412,16.0903579,20.6508732,16.67440066,28.76838614,"A Dean John et al. Lange's handbook of chemistry. In Universitas Of Tennese Knoxville, Fifthenth Edition, Mc. Graw Hill Inc, New York. Conference, 1999."
1703,n-octyl alcohol,CCCCCCCCO,293.15,0.003411223,8.925,0.950608225,0.819240027,0.08,21.39890099,12.85785644,15.94242689,20.48177622,16.52105217,29.22191089,"WE Wasburn. International critical tables of numerical data, physics, chemistry and technology. 1st electronic edition. Knovel: Norwich, NY, 2003."
1704,1-Octanol,CCCCCCCCO,303.15,0.003298697,6.125,0.787106093,0.810264227,0.15,21.47721782,12.57188539,15.71351463,20.12418022,16.15973785,29.49807921,"A Dean John et al. Lange's handbook of chemistry. In Universitas Of Tennese Knoxville, Fifthenth Edition, Mc. Graw Hill Inc, New York. Conference, 1999."
1705,n-octyl alcohol,CCCCCCCCO,363.15,0.002753683,1.21,0.08278537,0.763343594,0.29,21.90432673,10.65827931,14.64628958,18.11458067,14.10201939,30.23838614,"WE Wasburn. International critical tables of numerical data, physics, chemistry and technology. 1st electronic edition. Knovel: Norwich, NY, 2003."
1706,dioctyl adipate,CCCCCCCCOC(=O)CCCCC(=O)OCCCCCCCC,293.1,0.003411805,12.9,1.11058971,0.928745314,0.04,21.38407921,4.025674479,17.51870714,17.97556319,31.39685144,28.18151485,"Diego Alonso Saldana, Laurie Starck, Pascal Mougin, Bernard Rousseau, Nicolas Ferrando, and Benoit Creton. Prediction of density and viscosity of biofuel compounds using machine learning methods. Energy & fuels, 26(4):2416-2426, 2012."
1707,dioctyl adipate,CCCCCCCCOC(=O)CCCCC(=O)OCCCCCCCC,298.1,0.003354579,11.0,1.041392685,0.916230402,0.06,21.4670495,3.939323282,17.2874488,17.73083621,30.98299323,28.64585149,"Diego Alonso Saldana, Laurie Starck, Pascal Mougin, Bernard Rousseau, Nicolas Ferrando, and Benoit Creton. Prediction of density and viscosity of biofuel compounds using machine learning methods. Energy & fuels, 26(4):2416-2426, 2012."
1708,dioctyl adipate,CCCCCCCCOC(=O)CCCCC(=O)OCCCCCCCC,310.9,0.003216468,7.97,0.901458321,0.912487713,0.03,21.50379208,3.85297518,17.15744345,17.58504076,30.63321589,29.58823762,"Diego Alonso Saldana, Laurie Starck, Pascal Mougin, Bernard Rousseau, Nicolas Ferrando, and Benoit Creton. Prediction of density and viscosity of biofuel compounds using machine learning methods. Energy & fuels, 26(4):2416-2426, 2012."
1709,dioctyl adipate,CCCCCCCCOC(=O)CCCCC(=O)OCCCCCCCC,323.1,0.003095017,5.97,0.775974331,0.898209397,0.09,21.623,3.75981096,16.75686189,17.1737835,29.72514904,30.08471287,"Diego Alonso Saldana, Laurie Starck, Pascal Mougin, Bernard Rousseau, Nicolas Ferrando, and Benoit Creton. Prediction of density and viscosity of biofuel compounds using machine learning methods. Energy & fuels, 26(4):2416-2426, 2012."
1710,dioctyl adipate,CCCCCCCCOC(=O)CCCCC(=O)OCCCCCCCC,372.0,0.002688172,2.49,0.396199347,0.862248074,0.22,21.91881188,3.411804138,15.75154063,16.11713683,27.42198834,30.40792079,"Diego Alonso Saldana, Laurie Starck, Pascal Mougin, Bernard Rousseau, Nicolas Ferrando, and Benoit Creton. Prediction of density and viscosity of biofuel compounds using machine learning methods. Energy & fuels, 26(4):2416-2426, 2012."
1711,octyl octanoate,CCCCCCCCOC(=O)CCCCCCC,298.15,0.003354016,4.4,0.643452677,0.852489439,0.14,21.52791089,2.84381274,16.67373813,16.91480961,21.16189547,29.80406931,"Valentin Goussard, Francois Duprat, Jean-Luc Ploix, G erard Dreyfus, Veronique Nardello-Rataj, and Jean-Marie Aubry. A new machine-learning tool for fast estimation of liquid viscosity. application to cosmetic oils. Journal of Chemical Information and Modeling, 60(4):2012-2023, 2020."
1712,octyl ethanoate,CCCCCCCCOC(C)=O,293.1,0.003411805,1.85,0.267171728,0.880479329,0.05,21.65231683,4.286168941,17.22615216,17.75164142,15.31813965,29.83854455,"Diego Alonso Saldana, Laurie Starck, Pascal Mougin, Bernard Rousseau, Nicolas Ferrando, and Benoit Creton. Prediction of density and viscosity of biofuel compounds using machine learning methods. Energy & fuels, 26(4):2416-2426, 2012."
1713,octyl ethanoate,CCCCCCCCOC(C)=O,298.1,0.003354579,1.68,0.225309282,0.867461473,0.12,21.75975248,4.187327336,16.9046891,17.4158182,14.98869199,29.98285149,"Diego Alonso Saldana, Laurie Starck, Pascal Mougin, Bernard Rousseau, Nicolas Ferrando, and Benoit Creton. Prediction of density and viscosity of biofuel compounds using machine learning methods. Energy & fuels, 26(4):2416-2426, 2012."
1714,octyl ethanoate,CCCCCCCCOC(C)=O,308.1,0.003245699,1.38,0.139879086,0.862917586,0.13,21.80049505,4.140288035,16.76660126,17.27048097,14.84381603,30.05743564,"Diego Alonso Saldana, Laurie Starck, Pascal Mougin, Bernard Rousseau, Nicolas Ferrando, and Benoit Creton. Prediction of density and viscosity of biofuel compounds using machine learning methods. Energy & fuels, 26(4):2416-2426, 2012."
1715,octyl ethanoate,CCCCCCCCOC(C)=O,323.1,0.003095017,1.07,0.029383778,0.851803267,0.09,21.8880198,4.013224145,16.44890797,16.93160551,14.49909976,30.12849505,"Diego Alonso Saldana, Laurie Starck, Pascal Mougin, Bernard Rousseau, Nicolas Ferrando, and Benoit Creton. Prediction of density and viscosity of biofuel compounds using machine learning methods. Energy & fuels, 26(4):2416-2426, 2012."
1716,octyl ethanoate,CCCCCCCCOC(C)=O,338.1,0.002957705,0.88,-0.055517328,0.834447552,0.28,22.04050495,3.868488224,16.01965267,16.48047539,14.07338268,30.28108911,"Diego Alonso Saldana, Laurie Starck, Pascal Mougin, Bernard Rousseau, Nicolas Ferrando, and Benoit Creton. Prediction of density and viscosity of biofuel compounds using machine learning methods. Energy & fuels, 26(4):2416-2426, 2012."
1717,octyl ethanoate,CCCCCCCCOC(C)=O,353.1,0.002832059,0.73,-0.13667714,0.817019982,0.29,22.20364356,3.726674484,15.56590983,16.00606376,13.612397,30.5899802,"Diego Alonso Saldana, Laurie Starck, Pascal Mougin, Bernard Rousseau, Nicolas Ferrando, and Benoit Creton. Prediction of density and viscosity of biofuel compounds using machine learning methods. Energy & fuels, 26(4):2416-2426, 2012."
1718,octyl ethanoate,CCCCCCCCOC(C)=O,368.1,0.002716653,0.61,-0.214670165,0.808715507,0.24,22.27177228,3.634685087,15.33123265,15.75646328,13.3711894,30.60818812,"Diego Alonso Saldana, Laurie Starck, Pascal Mougin, Bernard Rousseau, Nicolas Ferrando, and Benoit Creton. Prediction of density and viscosity of biofuel compounds using machine learning methods. Energy & fuels, 26(4):2416-2426, 2012."
1719,octyl methanoate,CCCCCCCCOC=O,288.1,0.003471017,1.75,0.243038049,0.873305813,0.08,21.81631683,4.022935277,17.1859893,17.65078997,14.06492386,30.0280495,"Diego Alonso Saldana, Laurie Starck, Pascal Mougin, Bernard Rousseau, Nicolas Ferrando, and Benoit Creton. Prediction of density and viscosity of biofuel compounds using machine learning methods. Energy & fuels, 26(4):2416-2426, 2012."
1720,octyl formate,CCCCCCCCOC=O,298.15,0.003354016,1.45,0.161368002,0.857126202,0.12,21.95333663,3.872690442,16.7812489,17.2225721,13.68063549,30.22773267,"Valentin Goussard, Francois Duprat, Jean-Luc Ploix, G erard Dreyfus, Veronique Nardello-Rataj, and Jean-Marie Aubry. A new machine-learning tool for fast estimation of liquid viscosity. application to cosmetic oils. Journal of Chemical Information and Modeling, 60(4):2012-2023, 2020."
1721,octyl methanoate,CCCCCCCCOC=O,303.1,0.003299241,1.32,0.120573931,0.860205744,0.15,21.92206931,3.898966587,16.82848225,17.27448655,13.7223686,30.17236634,"Diego Alonso Saldana, Laurie Starck, Pascal Mougin, Bernard Rousseau, Nicolas Ferrando, and Benoit Creton. Prediction of density and viscosity of biofuel compounds using machine learning methods. Energy & fuels, 26(4):2416-2426, 2012."
1722,Octyl benzene,CCCCCCCCc1ccccc1,298.15,0.003354016,2.31,0.36361198,0.860035803,0.06,21.71548515,2.645636729,17.04013203,17.24453395,16.32148546,30.04768317,"Dabir S Viswanath, Tushar K Ghosh, Dasika HL Prasad, Nidamarty VK Dutt, Kalipatnapu Y Rani, Dabir S Viswanath, Tushar K Ghosh, Dasika HL Prasad, Nidamarty VK Dutt, and Kalipatnapu Y Rani. Correlations and estimation of pure liquid viscosity.Viscosity of Liquids: Theory, Estimation, Experiment, and Data, pages 135-405, 2007."
1723,n-heptyl alcohol,CCCCCCCO,363.15,0.002753683,1.0,0.0,0.746109935,0.55,22.11034653,11.1619385,14.26022334,18.11014386,12.93069133,30.52767327,"WE Wasburn. International critical tables of numerical data, physics, chemistry and technology. 1st electronic edition. Knovel: Norwich, NY, 2003."
1724,di-n-heptyl phthalate,CCCCCCCOC(=O)c1ccccc1C(=O)OCCCCCCC,353.1,0.002832059,6.03,0.780317312,0.954011026,0.13,21.95215842,4.474354183,16.9225803,17.50444692,28.52924379,29.80666337,"Diego Alonso Saldana, Laurie Starck, Pascal Mougin, Bernard Rousseau, Nicolas Ferrando, and Benoit Creton. Prediction of density and viscosity of biofuel compounds using machine learning methods. Energy & fuels, 26(4):2416-2426, 2012."
1725,heptyl ethanoate,CCCCCCCOC(C)=O,273.1,0.003661662,2.32,0.365487985,0.901783184,0.03,21.58312871,4.778700208,17.73637198,18.36905224,14.69408432,29.72769307,"Diego Alonso Saldana, Laurie Starck, Pascal Mougin, Bernard Rousseau, Nicolas Ferrando, and Benoit Creton. Prediction of density and viscosity of biofuel compounds using machine learning methods. Energy & fuels, 26(4):2416-2426, 2012."
1726,heptyl ethanoate,CCCCCCCOC(C)=O,283.1,0.003532321,1.85,0.267171728,0.889387809,0.07,21.67790099,4.649850861,17.4206501,18.03073484,14.38751188,29.77071287,"Diego Alonso Saldana, Laurie Starck, Pascal Mougin, Bernard Rousseau, Nicolas Ferrando, and Benoit Creton. Prediction of density and viscosity of biofuel compounds using machine learning methods. Energy & fuels, 26(4):2416-2426, 2012."
1727,heptyl ethanoate,CCCCCCCOC(C)=O,288.1,0.003471017,1.6,0.204119983,0.884777582,0.08,21.71616832,4.606725705,17.28115344,17.88483496,14.245485,29.93251485,"Diego Alonso Saldana, Laurie Starck, Pascal Mougin, Bernard Rousseau, Nicolas Ferrando, and Benoit Creton. Prediction of density and viscosity of biofuel compounds using machine learning methods. Energy & fuels, 26(4):2416-2426, 2012."
1728,heptyl ethanoate,CCCCCCCOC(C)=O,293.1,0.003411805,1.52,0.181843588,0.88572275,0.06,21.7100396,4.572633149,17.29954122,17.89383197,14.25456506,29.87755446,"Diego Alonso Saldana, Laurie Starck, Pascal Mougin, Bernard Rousseau, Nicolas Ferrando, and Benoit Creton. Prediction of density and viscosity of biofuel compounds using machine learning methods. Energy & fuels, 26(4):2416-2426, 2012."
1729,heptyl ethanoate,CCCCCCCOC(C)=O,300.5,0.003327787,1.24,0.093421685,0.872176542,0.1,21.82271287,4.475789684,16.96083384,17.54166265,13.94049513,30.04837624,"Diego Alonso Saldana, Laurie Starck, Pascal Mougin, Bernard Rousseau, Nicolas Ferrando, and Benoit Creton. Prediction of density and viscosity of biofuel compounds using machine learning methods. Energy & fuels, 26(4):2416-2426, 2012."
1730,heptyl ethanoate,CCCCCCCOC(C)=O,303.1,0.003299241,1.24,0.093421685,0.869303127,0.11,21.84545545,4.44918475,16.87872825,17.45551291,13.85861147,30.07145545,"Diego Alonso Saldana, Laurie Starck, Pascal Mougin, Bernard Rousseau, Nicolas Ferrando, and Benoit Creton. Prediction of density and viscosity of biofuel compounds using machine learning methods. Energy & fuels, 26(4):2416-2426, 2012."
1731,heptyl ethanoate,CCCCCCCOC(C)=O,313.1,0.003193868,1.09,0.037426498,0.858396547,0.16,21.94087129,4.356399295,16.60208661,17.16432328,13.6027463,30.323,"Diego Alonso Saldana, Laurie Starck, Pascal Mougin, Bernard Rousseau, Nicolas Ferrando, and Benoit Creton. Prediction of density and viscosity of biofuel compounds using machine learning methods. Energy & fuels, 26(4):2416-2426, 2012."
1732,heptyl ethanoate,CCCCCCCOC(C)=O,315.4,0.003170577,0.96,-0.017728767,0.853895033,0.16,21.982,4.316325938,16.49490314,17.05050966,13.50325678,30.31808911,"Diego Alonso Saldana, Laurie Starck, Pascal Mougin, Bernard Rousseau, Nicolas Ferrando, and Benoit Creton. Prediction of density and viscosity of biofuel compounds using machine learning methods. Energy & fuels, 26(4):2416-2426, 2012."
1733,heptyl ethanoate,CCCCCCCOC(C)=O,333.1,0.003002101,0.83,-0.080921908,0.847048274,0.17,22.03752475,4.223172349,16.2652103,16.8048602,13.27119808,30.33093069,"Diego Alonso Saldana, Laurie Starck, Pascal Mougin, Bernard Rousseau, Nicolas Ferrando, and Benoit Creton. Prediction of density and viscosity of biofuel compounds using machine learning methods. Energy & fuels, 26(4):2416-2426, 2012."
1734,heptyl ethanoate,CCCCCCCOC(C)=O,353.1,0.002832059,0.65,-0.187086643,0.831277796,0.34,22.17906931,4.054261205,15.83873568,16.34966974,12.86355277,30.48692079,"Diego Alonso Saldana, Laurie Starck, Pascal Mougin, Bernard Rousseau, Nicolas Ferrando, and Benoit Creton. Prediction of density and viscosity of biofuel compounds using machine learning methods. Energy & fuels, 26(4):2416-2426, 2012."
1735,heptyl ethanoate,CCCCCCCOC(C)=O,367.5,0.002721088,0.51,-0.292429824,0.807151131,0.48,22.3899901,3.875604323,15.26963311,15.75408288,12.35976313,30.80040594,"Diego Alonso Saldana, Laurie Starck, Pascal Mougin, Bernard Rousseau, Nicolas Ferrando, and Benoit Creton. Prediction of density and viscosity of biofuel compounds using machine learning methods. Energy & fuels, 26(4):2416-2426, 2012."
1736,heptyl methanoate,CCCCCCCOC=O,288.1,0.003471017,1.37,0.136720567,0.882899677,0.08,21.84669307,4.389239694,17.36043621,17.90687132,13.09078742,30.05323762,"Diego Alonso Saldana, Laurie Starck, Pascal Mougin, Bernard Rousseau, Nicolas Ferrando, and Benoit Creton. Prediction of density and viscosity of biofuel compounds using machine learning methods. Energy & fuels, 26(4):2416-2426, 2012."
1737,heptyl formate,CCCCCCCOC=O,298.15,0.003354016,1.16,0.064457989,0.862765076,0.11,22.02478218,4.215273518,16.86436154,17.38341958,12.66489821,30.22213861,"Valentin Goussard, Francois Duprat, Jean-Luc Ploix, G erard Dreyfus, Veronique Nardello-Rataj, and Jean-Marie Aubry. A new machine-learning tool for fast estimation of liquid viscosity. application to cosmetic oils. Journal of Chemical Information and Modeling, 60(4):2012-2023, 2020."
1738,heptyl methanoate,CCCCCCCOC=O,303.1,0.003299241,1.06,0.025305865,0.860589532,0.17,22.04586139,4.217178819,16.80297146,17.32431722,12.62309675,30.3209802,"Diego Alonso Saldana, Laurie Starck, Pascal Mougin, Bernard Rousseau, Nicolas Ferrando, and Benoit Creton. Prediction of density and viscosity of biofuel compounds using machine learning methods. Energy & fuels, 26(4):2416-2426, 2012."