Index,Name,CANON_SMILES,Temperature (K),Inverse temperature (1/K),Viscosity (cP),log(Viscosity),MD_density,MD_FV,MD_Rg,MD_SP_E,MD_SP_V,MD_SP,MD_HV,MD_RMSD,Reference
167,trans-decahydronaphthalene,C1CC[C@H]2CCCC[C@@H]2C1,343.1,0.002914602,0.98,-0.008773924,0.823322998,0.2,21.5220495,0.653362315,15.66174517,15.67539701,10.54353769,29.47426733,"Diego Alonso Saldana, Laurie Starck, Pascal Mougin, Bernard Rousseau, Nicolas Ferrando, and Benoit Creton. Prediction of density and viscosity of biofuel compounds using machine learning methods. Energy & fuels, 26(4):2416-2426, 2012."
168,trans-decahydronaphthalene,C1CC[C@H]2CCCC[C@@H]2C1,353.1,0.002832059,0.87,-0.060480747,0.803329174,0.35,21.70770297,0.627261447,15.17491062,15.18789437,10.18994806,29.72008911,"Diego Alonso Saldana, Laurie Starck, Pascal Mougin, Bernard Rousseau, Nicolas Ferrando, and Benoit Creton. Prediction of density and viscosity of biofuel compounds using machine learning methods. Energy & fuels, 26(4):2416-2426, 2012."
169,trans-decahydronaphthalene,C1CC[C@H]2CCCC[C@@H]2C1,363.1,0.002754062,0.77,-0.113509275,0.797360909,0.41,21.75276238,0.61671013,15.01932646,15.03201736,10.08563071,29.80708911,"Diego Alonso Saldana, Laurie Starck, Pascal Mougin, Bernard Rousseau, Nicolas Ferrando, and Benoit Creton. Prediction of density and viscosity of biofuel compounds using machine learning methods. Energy & fuels, 26(4):2416-2426, 2012."
170,trans-decahydronaphthalene,C1CC[C@H]2CCCC[C@@H]2C1,372.1,0.00268745,0.7,-0.15490196,0.806140885,0.35,21.67456436,0.62371218,15.19542993,15.20825964,10.21997438,29.70092079,"Diego Alonso Saldana, Laurie Starck, Pascal Mougin, Bernard Rousseau, Nicolas Ferrando, and Benoit Creton. Prediction of density and viscosity of biofuel compounds using machine learning methods. Energy & fuels, 26(4):2416-2426, 2012."
171,trans-decahydronaphthalene,C1CC[C@H]2CCCC[C@@H]2C1,373.1,0.002680247,0.69,-0.161150909,0.79877877,0.43,21.73974257,0.617900545,15.02615625,15.03889047,10.09743692,29.77893069,"Diego Alonso Saldana, Laurie Starck, Pascal Mougin, Bernard Rousseau, Nicolas Ferrando, and Benoit Creton. Prediction of density and viscosity of biofuel compounds using machine learning methods. Energy & fuels, 26(4):2416-2426, 2012."
172,trans-decahydronaphthalene,C1CC[C@H]2CCCC[C@@H]2C1,383.1,0.002610285,0.63,-0.200659451,0.784951763,0.59,21.86716832,0.593631769,14.68425868,14.69628961,9.853280988,29.8699604,"Diego Alonso Saldana, Laurie Starck, Pascal Mougin, Bernard Rousseau, Nicolas Ferrando, and Benoit Creton. Prediction of density and viscosity of biofuel compounds using machine learning methods. Energy & fuels, 26(4):2416-2426, 2012."
173,trans-decahydronaphthalene,C1CC[C@H]2CCCC[C@@H]2C1,393.1,0.002543882,0.57,-0.244125144,0.775782992,0.69,21.9600495,0.583805656,14.46906121,14.48087147,9.71287168,30.05306931,"Diego Alonso Saldana, Laurie Starck, Pascal Mougin, Bernard Rousseau, Nicolas Ferrando, and Benoit Creton. Prediction of density and viscosity of biofuel compounds using machine learning methods. Energy & fuels, 26(4):2416-2426, 2012."
174,trans-decahydronaphthalene,C1CC[C@H]2CCCC[C@@H]2C1,403.1,0.002480774,0.52,-0.283996656,0.763545962,0.91,22.06628713,0.571744269,14.16186913,14.17342959,9.494680549,30.21430693,"Diego Alonso Saldana, Laurie Starck, Pascal Mougin, Bernard Rousseau, Nicolas Ferrando, and Benoit Creton. Prediction of density and viscosity of biofuel compounds using machine learning methods. Energy & fuels, 26(4):2416-2426, 2012."
175,cis-decahydronaphthalene,C1CC[C@H]2CCCC[C@H]2C1,243.1,0.004113534,15.76,1.197556213,0.918009914,0.01,20.75476238,0.717422824,18.12317701,18.1373922,12.32402241,27.13909901,"Diego Alonso Saldana, Laurie Starck, Pascal Mougin, Bernard Rousseau, Nicolas Ferrando, and Benoit Creton. Prediction of density and viscosity of biofuel compounds using machine learning methods. Energy & fuels, 26(4):2416-2426, 2012."
176,cis-decahydronaphthalene,C1CC[C@H]2CCCC[C@H]2C1,253.1,0.003951008,10.68,1.028571253,0.916368047,0.01,20.76333663,0.717002711,18.04604141,18.06030493,12.26449417,27.70964356,"Diego Alonso Saldana, Laurie Starck, Pascal Mougin, Bernard Rousseau, Nicolas Ferrando, and Benoit Creton. Prediction of density and viscosity of biofuel compounds using machine learning methods. Energy & fuels, 26(4):2416-2426, 2012."
177,cis-decahydronaphthalene,C1CC[C@H]2CCCC[C@H]2C1,263.1,0.003800836,7.58,0.879669206,0.897533412,0.03,20.91135644,0.692307718,17.55696421,17.57063451,11.88886375,28.48681188,"Diego Alonso Saldana, Laurie Starck, Pascal Mougin, Bernard Rousseau, Nicolas Ferrando, and Benoit Creton. Prediction of density and viscosity of biofuel compounds using machine learning methods. Energy & fuels, 26(4):2416-2426, 2012."
178,cis-decahydronaphthalene,C1CC[C@H]2CCCC[C@H]2C1,273.1,0.003661662,5.59,0.747411808,0.89869336,0.04,20.89992079,0.698580175,17.54802833,17.56195362,11.88284037,28.55712871,"Diego Alonso Saldana, Laurie Starck, Pascal Mougin, Bernard Rousseau, Nicolas Ferrando, and Benoit Creton. Prediction of density and viscosity of biofuel compounds using machine learning methods. Energy & fuels, 26(4):2416-2426, 2012."
179,cis-decahydronaphthalene,C1CC[C@H]2CCCC[C@H]2C1,283.1,0.003532321,4.3,0.633468456,0.890540858,0.04,20.96461386,0.684222923,17.31561674,17.32915027,11.70514199,28.80175248,"Diego Alonso Saldana, Laurie Starck, Pascal Mougin, Bernard Rousseau, Nicolas Ferrando, and Benoit Creton. Prediction of density and viscosity of biofuel compounds using machine learning methods. Energy & fuels, 26(4):2416-2426, 2012."
180,cis-decahydronaphthalene,C1CC[C@H]2CCCC[C@H]2C1,293.1,0.003411805,3.37,0.527629901,0.878100137,0.13,21.06242574,0.674095783,16.99003176,17.00342345,11.46205466,28.88824752,"Diego Alonso Saldana, Laurie Starck, Pascal Mougin, Bernard Rousseau, Nicolas Ferrando, and Benoit Creton. Prediction of density and viscosity of biofuel compounds using machine learning methods. Energy & fuels, 26(4):2416-2426, 2012."
181,cis-decahydronaphthalene,C1CC[C@H]2CCCC[C@H]2C1,298.1,0.003354579,2.9,0.462397998,0.872986483,0.07,21.10654455,0.664208829,16.84970271,16.86281276,11.35547304,28.95811881,"Diego Alonso Saldana, Laurie Starck, Pascal Mougin, Bernard Rousseau, Nicolas Ferrando, and Benoit Creton. Prediction of density and viscosity of biofuel compounds using machine learning methods. Energy & fuels, 26(4):2416-2426, 2012."
182,cis-decahydronaphthalene,C1CC[C@H]2CCCC[C@H]2C1,303.1,0.003299241,2.72,0.434568904,0.872276362,0.08,21.11029703,0.658030624,16.81936196,16.8322531,11.3351571,28.99564356,"Diego Alonso Saldana, Laurie Starck, Pascal Mougin, Bernard Rousseau, Nicolas Ferrando, and Benoit Creton. Prediction of density and viscosity of biofuel compounds using machine learning methods. Energy & fuels, 26(4):2416-2426, 2012."
183,cis-decahydronaphthalene,C1CC[C@H]2CCCC[C@H]2C1,308.1,0.003245699,2.37,0.374748346,0.855979916,0.13,21.24356436,0.641639303,16.41784922,16.43041203,11.03346665,29.10965347,"Diego Alonso Saldana, Laurie Starck, Pascal Mougin, Bernard Rousseau, Nicolas Ferrando, and Benoit Creton. Prediction of density and viscosity of biofuel compounds using machine learning methods. Energy & fuels, 26(4):2416-2426, 2012."
184,cis-decahydronaphthalene,C1CC[C@H]2CCCC[C@H]2C1,311.0,0.003215434,2.31,0.36361198,0.863955644,0.09,21.18030693,0.655312966,16.59196534,16.60492981,11.1635221,29.00940594,"Diego Alonso Saldana, Laurie Starck, Pascal Mougin, Bernard Rousseau, Nicolas Ferrando, and Benoit Creton. Prediction of density and viscosity of biofuel compounds using machine learning methods. Energy & fuels, 26(4):2416-2426, 2012."
185,cis-decahydronaphthalene,C1CC[C@H]2CCCC[C@H]2C1,313.1,0.003193868,2.24,0.350248018,0.858883325,0.14,21.22052475,0.646445815,16.46500078,16.47771846,11.06806181,29.10037624,"Diego Alonso Saldana, Laurie Starck, Pascal Mougin, Bernard Rousseau, Nicolas Ferrando, and Benoit Creton. Prediction of density and viscosity of biofuel compounds using machine learning methods. Energy & fuels, 26(4):2416-2426, 2012."
186,cis-decahydronaphthalene,C1CC[C@H]2CCCC[C@H]2C1,323.1,0.003095017,1.87,0.271841607,0.843011233,0.12,21.34958416,0.621737701,16.07236899,16.08441441,10.78263237,29.31285149,"Diego Alonso Saldana, Laurie Starck, Pascal Mougin, Bernard Rousseau, Nicolas Ferrando, and Benoit Creton. Prediction of density and viscosity of biofuel compounds using machine learning methods. Energy & fuels, 26(4):2416-2426, 2012."
187,cis-decahydronaphthalene,C1CC[C@H]2CCCC[C@H]2C1,333.1,0.003002101,1.58,0.198657087,0.842812468,0.17,21.35376238,0.632827015,16.03762796,16.05013635,10.76171389,29.16487129,"Diego Alonso Saldana, Laurie Starck, Pascal Mougin, Bernard Rousseau, Nicolas Ferrando, and Benoit Creton. Prediction of density and viscosity of biofuel compounds using machine learning methods. Energy & fuels, 26(4):2416-2426, 2012."
188,cis-decahydronaphthalene,C1CC[C@H]2CCCC[C@H]2C1,343.1,0.002914602,1.36,0.133538908,0.84068104,0.19,21.3759802,0.624165979,15.95108115,15.96331841,10.69796584,29.2079802,"Diego Alonso Saldana, Laurie Starck, Pascal Mougin, Bernard Rousseau, Nicolas Ferrando, and Benoit Creton. Prediction of density and viscosity of biofuel compounds using machine learning methods. Energy & fuels, 26(4):2416-2426, 2012."
189,cis-decahydronaphthalene,C1CC[C@H]2CCCC[C@H]2C1,353.1,0.002832059,1.19,0.075546961,0.817960429,0.34,21.566,0.594956704,15.40765466,15.41916629,10.3061925,29.57242574,"Diego Alonso Saldana, Laurie Starck, Pascal Mougin, Bernard Rousseau, Nicolas Ferrando, and Benoit Creton. Prediction of density and viscosity of biofuel compounds using machine learning methods. Energy & fuels, 26(4):2416-2426, 2012."
190,cis-decahydronaphthalene,C1CC[C@H]2CCCC[C@H]2C1,363.1,0.002754062,1.05,0.021189299,0.811054519,0.28,21.62373267,0.588969354,15.23352019,15.24492492,10.19016352,29.70534653,"Diego Alonso Saldana, Laurie Starck, Pascal Mougin, Bernard Rousseau, Nicolas Ferrando, and Benoit Creton. Prediction of density and viscosity of biofuel compounds using machine learning methods. Energy & fuels, 26(4):2416-2426, 2012."
191,cis-decahydronaphthalene,C1CC[C@H]2CCCC[C@H]2C1,372.1,0.00268745,0.92,-0.036212173,0.804144881,0.38,21.69315842,0.580990297,15.05106304,15.06230315,10.06200316,29.67653465,"Diego Alonso Saldana, Laurie Starck, Pascal Mougin, Bernard Rousseau, Nicolas Ferrando, and Benoit Creton. Prediction of density and viscosity of biofuel compounds using machine learning methods. Energy & fuels, 26(4):2416-2426, 2012."
192,cis-decahydronaphthalene,C1CC[C@H]2CCCC[C@H]2C1,373.1,0.002680247,0.92,-0.036212173,0.811591153,0.4,21.63281188,0.589743995,15.21411763,15.22557173,10.17977945,29.68649505,"Diego Alonso Saldana, Laurie Starck, Pascal Mougin, Bernard Rousseau, Nicolas Ferrando, and Benoit Creton. Prediction of density and viscosity of biofuel compounds using machine learning methods. Energy & fuels, 26(4):2416-2426, 2012."
193,cis-decahydronaphthalene,C1CC[C@H]2CCCC[C@H]2C1,383.1,0.002610285,0.82,-0.086186148,0.79502141,0.47,21.76714851,0.566156966,14.81751434,14.82836042,9.900209795,29.81522772,"Diego Alonso Saldana, Laurie Starck, Pascal Mougin, Bernard Rousseau, Nicolas Ferrando, and Benoit Creton. Prediction of density and viscosity of biofuel compounds using machine learning methods. Energy & fuels, 26(4):2416-2426, 2012."
194,cis-decahydronaphthalene,C1CC[C@H]2CCCC[C@H]2C1,393.1,0.002543882,0.75,-0.124938737,0.796234812,0.49,21.76025743,0.574548854,14.81234595,14.82353068,9.900173904,29.8730396,"Diego Alonso Saldana, Laurie Starck, Pascal Mougin, Bernard Rousseau, Nicolas Ferrando, and Benoit Creton. Prediction of density and viscosity of biofuel compounds using machine learning methods. Energy & fuels, 26(4):2416-2426, 2012."
195,cis-decahydronaphthalene,C1CC[C@H]2CCCC[C@H]2C1,403.1,0.002480774,0.68,-0.167491087,0.772458095,0.99,21.97784158,0.542868475,14.26086102,14.271224,9.513352983,30.01837624,"Diego Alonso Saldana, Laurie Starck, Pascal Mougin, Bernard Rousseau, Nicolas Ferrando, and Benoit Creton. Prediction of density and viscosity of biofuel compounds using machine learning methods. Energy & fuels, 26(4):2416-2426, 2012."
196,ethylene oxide,C1CO1,227.45,0.004396571,0.5387,-0.268653025,0.863782485,0.07,22.96289109,11.04581645,17.14999317,20.39937761,5.524382713,31.89915842,"WE Wasburn. International critical tables of numerical data, physics, chemistry and technology. 1st electronic edition. Knovel: Norwich, NY, 2003."
197,ethylene oxide,C1CO1,234.95,0.004256225,0.4883,-0.311313276,0.85426077,0.08,23.04675248,10.880902,16.91691975,20.11415944,5.453409474,32.07730693,"WE Wasburn. International critical tables of numerical data, physics, chemistry and technology. 1st electronic edition. Knovel: Norwich, NY, 2003."
198,ethylene oxide,C1CO1,240.55,0.00415714,0.4505,-0.346305205,0.836492658,0.1,23.2039802,10.63279502,16.52721846,19.65217875,5.339224239,32.25710891,"WE Wasburn. International critical tables of numerical data, physics, chemistry and technology. 1st electronic edition. Knovel: Norwich, NY, 2003."
199,ehtylene oxide,C1CO1,252.15,0.003965893,0.3937,-0.404834585,0.821041354,0.15,23.35116832,10.37972029,16.16167638,19.20787145,5.232344347,32.40479208,"WE Wasburn. International critical tables of numerical data, physics, chemistry and technology. 1st electronic edition. Knovel: Norwich, NY, 2003."
200,ethylene oxide,C1CO1,259.55,0.003852822,0.3637,-0.439256699,0.810247684,0.16,23.44994059,10.19641906,15.90703242,18.8945279,5.154929824,32.57189109,"WE Wasburn. International critical tables of numerical data, physics, chemistry and technology. 1st electronic edition. Knovel: Norwich, NY, 2003."
201,ethylene oxide,C1CO1,282.45,0.00354045,0.2927,-0.533577278,0.759512969,0.7,23.96567327,9.48922956,14.78575921,17.56893474,4.840270394,33.31415842,"WE Wasburn. International critical tables of numerical data, physics, chemistry and technology. 1st electronic edition. Knovel: Norwich, NY, 2003."
202,Ethylene oxide,C1CO1,283.15,0.003531697,0.254,-0.595166283,0.757340115,0.59,23.98737624,9.458794579,14.73972861,17.5137496,4.827026169,33.26484158,"Sunghwan Kim, Paul A Thiessen, Tiejun Cheng, Jian Zhang, Asta Gindulyte, and Evan E Bolton. Pug-view: programmatic access to chemical annotations integrated in pubchem. Journal of cheminformatics, 11(1):1-11, 2019."
203,Morpholine,C1COCCN1,288.15,0.003470415,2.53,0.403120521,1.029243658,0.02,21.08693069,14.89505009,18.37278611,23.65247148,11.89063608,29.10105941,"A Dean John et al. Lange's handbook of chemistry. In Universitas Of Tennese Knoxville, Fifthenth Edition, Mc. Graw Hill Inc, New York. Conference, 1999."
204,Morpholine,C1COCCN1,293.15,0.003411223,2.23,0.348304863,1.023902379,0.03,21.12647525,14.71716963,18.26276968,23.45506715,11.77048484,29.14675248,"Sunghwan Kim, Paul A Thiessen, Tiejun Cheng, Jian Zhang, Asta Gindulyte, and Evan E Bolton. Pug-view: programmatic access to chemical annotations integrated in pubchem. Journal of cheminformatics, 11(1):1-11, 2019."
205,Morpholine,C1COCCN1,303.15,0.003298697,1.79,0.252853031,1.009868877,0.04,21.22862376,14.32311359,17.98468491,22.99157402,11.50196052,29.34306931,"A Dean John et al. Lange's handbook of chemistry. In Universitas Of Tennese Knoxville, Fifthenth Edition, Mc. Graw Hill Inc, New York. Conference, 1999."
206,"1,4-Dioxane",C1COCCO1,288.15,0.003470415,1.439,0.158060794,1.030040354,0.04,21.65553465,10.62516259,18.7483992,21.54999735,10.06672843,29.92011881,"A Dean John et al. Lange's handbook of chemistry. In Universitas Of Tennese Knoxville, Fifthenth Edition, Mc. Graw Hill Inc, New York. Conference, 1999."
207,"1,4-Dioxane",C1COCCO1,303.15,0.003298697,1.087,0.036229544,1.010395624,0.07,21.79846535,10.30875964,18.29648332,21.00089024,9.794191899,30.1239604,"A Dean John et al. Lange's handbook of chemistry. In Universitas Of Tennese Knoxville, Fifthenth Edition, Mc. Graw Hill Inc, New York. Conference, 1999."
208,"1,3-dioxolane",C1COCO1,298.15,0.003354016,0.599791076,-0.222,1.061380462,0.03,21.92687129,11.69260682,19.11634567,22.40885128,8.969181339,30.30287129,"Gregory W Kau man and Peter C Jurs. Prediction of surface tension, viscosity, and thermal conductivity for common organic solvents using quantitative structure- property relationships. Journal of chemical information and computer sciences, 41(2):408-418, 2001."
209,Trimethylene sulfide,C1CSC1,293.15,0.003411223,0.638,-0.195179321,0.986472288,0.05,23.19480198,11.33790955,18.99378196,22.12047624,9.372576011,32.11406931,"A Dean John et al. Lange's handbook of chemistry. In Universitas Of Tennese Knoxville, Fifthenth Edition, Mc. Graw Hill Inc, New York. Conference, 1999."
210,Trimethylene sulfide,C1CSC1,298.15,0.003354016,0.607,-0.216811309,0.983402825,0.05,23.22279208,11.27023687,18.91292045,22.01637158,9.327150091,32.12271287,"A Dean John et al. Lange's handbook of chemistry. In Universitas Of Tennese Knoxville, Fifthenth Edition, Mc. Graw Hill Inc, New York. Conference, 1999."
211,Methyl 2-cyanoacrylate,C=C(C#N)C(=O)OC,298.15,0.003354016,2.2,0.342422681,1.097533092,0.03,23.4810099,15.25569764,19.43817505,24.70994512,15.36474754,32.49584158,"Sunghwan Kim, Paul A Thiessen, Tiejun Cheng, Jian Zhang, Asta Gindulyte, and Evan E Bolton. Pug-view: programmatic access to chemical annotations integrated in pubchem. Journal of cheminformatics, 11(1):1-11, 2019."
212,diisopropenyl,C=C(C)C(=C)C,273.52,0.00365604,0.3374,-0.471854922,0.756874096,0.16,22.41769307,2.976357426,16.30630439,16.57594545,7.670864669,30.94241584,"WE Wasburn. International critical tables of numerical data, physics, chemistry and technology. 1st electronic edition. Knovel: Norwich, NY, 2003."
213,diisopropenyl,C=C(C)C(=C)C,279.1,0.003582945,0.3169,-0.499077761,0.74314823,0.16,22.54508911,2.87055855,15.95745568,16.21379417,7.499863792,31.11617822,"WE Wasburn. International critical tables of numerical data, physics, chemistry and technology. 1st electronic edition. Knovel: Norwich, NY, 2003."
214,diisopropenyl,C=C(C)C(=C)C,283.93,0.003521995,0.301,-0.521433504,0.744045095,0.2,22.54529703,2.858969105,15.95996091,16.2142151,7.501455024,31.12219802,"WE Wasburn. International critical tables of numerical data, physics, chemistry and technology. 1st electronic edition. Knovel: Norwich, NY, 2003."
215,diisopropenyl,C=C(C)C(=C)C,288.61,0.003464883,0.2866,-0.542723814,0.733063647,0.3,22.65969307,2.760659083,15.68022855,15.92162568,7.362849367,31.30164356,"WE Wasburn. International critical tables of numerical data, physics, chemistry and technology. 1st electronic edition. Knovel: Norwich, NY, 2003."
216,diisopropenyl,C=C(C)C(=C)C,293.15,0.003411223,0.2733,-0.563360368,0.739263698,0.2,22.59422772,2.790360614,15.8084521,16.05309624,7.426569143,31.16322772,"WE Wasburn. International critical tables of numerical data, physics, chemistry and technology. 1st electronic edition. Knovel: Norwich, NY, 2003."
217,diisopropenyl,C=C(C)C(=C)C,293.91,0.003402402,0.2719,-0.565590792,0.738080359,0.24,22.60319802,2.761736962,15.77872229,16.01882027,7.409812615,31.08452475,"WE Wasburn. International critical tables of numerical data, physics, chemistry and technology. 1st electronic edition. Knovel: Norwich, NY, 2003."
218,diisopropenyl,C=C(C)C(=C)C,298.61,0.00334885,0.2599,-0.585193721,0.734273194,0.24,22.6460099,2.726109631,15.67542036,15.91096294,7.362466624,31.19434653,"WE Wasburn. International critical tables of numerical data, physics, chemistry and technology. 1st electronic edition. Knovel: Norwich, NY, 2003."
219,diisopropenyl,C=C(C)C(=C)C,303.86,0.003290989,0.2474,-0.606600305,0.722234622,0.33,22.76981188,2.642958245,15.37109565,15.59694674,7.216772892,31.49469307,"WE Wasburn. International critical tables of numerical data, physics, chemistry and technology. 1st electronic edition. Knovel: Norwich, NY, 2003."