Index,Name,CANON_SMILES,Temperature (K),Inverse temperature (1/K),Viscosity (cP),log(Viscosity),MD_density,MD_FV,MD_Rg,MD_SP_E,MD_SP_V,MD_SP,MD_HV,MD_RMSD,Reference
2443,methyl acetoacetate,COC(=O)CC(C)=O,303.1,0.003299241,1.42,0.152288344,1.087732143,0.02,22.29050495,12.24804595,19.5870884,23.10138891,14.21850667,30.83163366,"Diego Alonso Saldana, Laurie Starck, Pascal Mougin, Bernard Rousseau, Nicolas Ferrando, and Benoit Creton. Prediction of density and viscosity of biofuel compounds using machine learning methods. Energy & fuels, 26(4):2416-2426, 2012."
2444,methyl acetoacetate,COC(=O)CC(C)=O,308.1,0.003245699,1.3,0.113943352,1.076786182,0.01,22.37120792,12.11121378,19.35677032,22.83358891,14.04984519,30.94650495,"Diego Alonso Saldana, Laurie Starck, Pascal Mougin, Bernard Rousseau, Nicolas Ferrando, and Benoit Creton. Prediction of density and viscosity of biofuel compounds using machine learning methods. Energy & fuels, 26(4):2416-2426, 2012."
2445,Methyl isovalerate,COC(=O)CC(C)C,298.15,0.003354016,0.48,-0.318758763,0.897363425,0.11,22.06577228,6.039860291,17.04181204,18.08066192,10.70655142,30.3879802,"Valentin Goussard, Francois Duprat, Jean-Luc Ploix, G erard Dreyfus, Veronique Nardello-Rataj, and Jean-Marie Aubry. A new machine-learning tool for fast estimation of liquid viscosity. application to cosmetic oils. Journal of Chemical Information and Modeling, 60(4):2012-2023, 2020."
2446,Dimethyl hexanedioate,COC(=O)CCCCC(=O)OC,293.15,0.003411223,14.0,1.146128036,1.075822222,0.02,21.79511881,9.059026023,19.23646925,21.26298315,18.07922402,30.03007921,"A Dean John et al. Lange's handbook of chemistry. In Universitas Of Tennese Knoxville, Fifthenth Edition, Mc. Graw Hill Inc, New York. Conference, 1999."
2447,Methyl chloroacetate,COC(=O)CCl,241.03,0.004148861,2.95,0.469822016,1.294223068,0.0,23.31427723,12.43708863,20.58150842,24.04752256,12.06846346,32.35127723,"Sunghwan Kim, Paul A Thiessen, Tiejun Cheng, Jian Zhang, Asta Gindulyte, and Evan E Bolton. Pug-view: programmatic access to chemical annotations integrated in pubchem. Journal of cheminformatics, 11(1):1-11, 2019."
2448,Dimethyl carbonate,COC(=O)OC,293.15,0.003411223,0.664,-0.177831921,1.093091187,0.05,22.51463366,11.95847573,19.23812692,22.65203483,10.6887233,31.24623762,"Sunghwan Kim, Paul A Thiessen, Tiejun Cheng, Jian Zhang, Asta Gindulyte, and Evan E Bolton. Pug-view: programmatic access to chemical annotations integrated in pubchem. Journal of cheminformatics, 11(1):1-11, 2019."
2449,Dimethyl carbonate,COC(=O)OC,298.15,0.003354016,0.58,-0.236572006,1.093299869,0.04,22.50923762,11.98507268,19.21992804,22.65066783,10.6955188,31.19011881,"Valentin Goussard, Francois Duprat, Jean-Luc Ploix, G erard Dreyfus, Veronique Nardello-Rataj, and Jean-Marie Aubry. A new machine-learning tool for fast estimation of liquid viscosity. application to cosmetic oils. Journal of Chemical Information and Modeling, 60(4):2012-2023, 2020."
2450,methyl benzoate,COC(=O)c1ccccc1,288.1,0.003471017,2.3,0.361727836,1.113671323,0.01,22.43547525,8.743548269,20.17701566,21.99015093,14.7019809,31.01681188,"Diego Alonso Saldana, Laurie Starck, Pascal Mougin, Bernard Rousseau, Nicolas Ferrando, and Benoit Creton. Prediction of density and viscosity of biofuel compounds using machine learning methods. Energy & fuels, 26(4):2416-2426, 2012."
2451,Methyl benzoate,COC(=O)c1ccccc1,288.15,0.003470415,2.298,0.361350024,1.108869578,0.01,22.46862376,8.695457231,20.08549495,21.88706038,14.6305074,31.09625743,"A Dean John et al. Lange's handbook of chemistry. In Universitas Of Tennese Knoxville, Fifthenth Edition, Mc. Graw Hill Inc, New York. Conference, 1999."
2452,methyl benzoate,COC(=O)c1ccccc1,293.1,0.003411805,2.06,0.31386722,1.10272573,0.01,22.51218812,8.61022981,19.95027805,21.72914327,14.51544447,31.18786139,"Diego Alonso Saldana, Laurie Starck, Pascal Mougin, Bernard Rousseau, Nicolas Ferrando, and Benoit Creton. Prediction of density and viscosity of biofuel compounds using machine learning methods. Energy & fuels, 26(4):2416-2426, 2012."
2453,methyl benzoate,COC(=O)c1ccccc1,303.1,0.003299241,1.67,0.222716471,1.09346088,0.02,22.57308911,8.461271836,19.73112633,21.4689914,14.31892695,31.24555446,"Diego Alonso Saldana, Laurie Starck, Pascal Mougin, Bernard Rousseau, Nicolas Ferrando, and Benoit Creton. Prediction of density and viscosity of biofuel compounds using machine learning methods. Energy & fuels, 26(4):2416-2426, 2012."
2454,Methyl benzoate,COC(=O)c1ccccc1,303.15,0.003298697,1.673,0.223495941,1.096967565,0.03,22.55016832,8.500431776,19.80038279,21.5480566,14.3760542,31.16788119,"A Dean John et al. Lange's handbook of chemistry. In Universitas Of Tennese Knoxville, Fifthenth Edition, Mc. Graw Hill Inc, New York. Conference, 1999."
2455,dimethyl phthalate,COC(=O)c1ccccc1C(=O)OC,290.7,0.003439972,20.3,1.307496038,1.213466812,0.01,22.30472277,10.28197724,20.62987607,23.05025623,20.89893186,26.62686139,"Diego Alonso Saldana, Laurie Starck, Pascal Mougin, Bernard Rousseau, Nicolas Ferrando, and Benoit Creton. Prediction of density and viscosity of biofuel compounds using machine learning methods. Energy & fuels, 26(4):2416-2426, 2012."
2456,dimethyl phthalate,COC(=O)c1ccccc1C(=O)OC,297.0,0.003367003,14.9,1.173186268,1.207772867,0.01,22.33341584,10.16768987,20.4846885,22.86941299,20.68818167,26.64689109,"Diego Alonso Saldana, Laurie Starck, Pascal Mougin, Bernard Rousseau, Nicolas Ferrando, and Benoit Creton. Prediction of density and viscosity of biofuel compounds using machine learning methods. Energy & fuels, 26(4):2416-2426, 2012."
2457,dimethyl phthalate,COC(=O)c1ccccc1C(=O)OC,303.2,0.003298153,11.0,1.041392685,1.199078675,0.01,22.39090099,10.06646707,20.2973464,22.65660115,20.47118809,26.8240198,"Diego Alonso Saldana, Laurie Starck, Pascal Mougin, Bernard Rousseau, Nicolas Ferrando, and Benoit Creton. Prediction of density and viscosity of biofuel compounds using machine learning methods. Energy & fuels, 26(4):2416-2426, 2012."
2458,dimethyl phthalate,COC(=O)c1ccccc1C(=O)OC,313.5,0.003189793,7.48,0.873901598,1.190198283,0.01,22.45292079,9.909686763,20.10248168,22.4124643,20.21084972,27.4129802,"Diego Alonso Saldana, Laurie Starck, Pascal Mougin, Bernard Rousseau, Nicolas Ferrando, and Benoit Creton. Prediction of density and viscosity of biofuel compounds using machine learning methods. Energy & fuels, 26(4):2416-2426, 2012."
2459,dimethyl phthalate,COC(=O)c1ccccc1C(=O)OC,326.5,0.003062787,4.97,0.696356389,1.183859145,0.01,22.4849901,9.806214128,19.90961574,22.1936915,19.95899507,28.64538614,"Diego Alonso Saldana, Laurie Starck, Pascal Mougin, Bernard Rousseau, Nicolas Ferrando, and Benoit Creton. Prediction of density and viscosity of biofuel compounds using machine learning methods. Energy & fuels, 26(4):2416-2426, 2012."
2460,dimethyl phthalate,COC(=O)c1ccccc1C(=O)OC,342.5,0.002919708,3.29,0.517195898,1.171799507,0.02,22.56352475,9.599909604,19.6346523,21.85596478,19.60034026,30.04191089,"Diego Alonso Saldana, Laurie Starck, Pascal Mougin, Bernard Rousseau, Nicolas Ferrando, and Benoit Creton. Prediction of density and viscosity of biofuel compounds using machine learning methods. Energy & fuels, 26(4):2416-2426, 2012."
2461,dimethyl phthalate,COC(=O)c1ccccc1C(=O)OC,369.5,0.00270636,1.99,0.298853076,1.152457256,0.04,22.68963366,9.31204695,19.18267769,21.3235767,19.04572736,31.15310891,"Diego Alonso Saldana, Laurie Starck, Pascal Mougin, Bernard Rousseau, Nicolas Ferrando, and Benoit Creton. Prediction of density and viscosity of biofuel compounds using machine learning methods. Energy & fuels, 26(4):2416-2426, 2012."
2462,methyl salicylate,COC(=O)c1ccccc1O,298.1,0.003354579,2.72,0.434568904,1.192804822,0.01,22.35493069,8.724622869,20.55478154,22.32990984,15.79375439,30.93312871,"Diego Alonso Saldana, Laurie Starck, Pascal Mougin, Bernard Rousseau, Nicolas Ferrando, and Benoit Creton. Prediction of density and viscosity of biofuel compounds using machine learning methods. Energy & fuels, 26(4):2416-2426, 2012."
2463,Methyl salicylate,COC(=O)c1ccccc1O,298.15,0.003354016,2.5,0.397940009,1.18322123,0.01,22.41722772,8.645583701,20.37760569,22.13597681,15.65195625,30.91386139,"Valentin Goussard, Francois Duprat, Jean-Luc Ploix, G erard Dreyfus, Veronique Nardello-Rataj, and Jean-Marie Aubry. A new machine-learning tool for fast estimation of liquid viscosity. application to cosmetic oils. Journal of Chemical Information and Modeling, 60(4):2012-2023, 2020."
2464,methyl salicylate,COC(=O)c1ccccc1O,303.1,0.003299241,2.38,0.376576957,1.182604089,0.01,22.42149505,8.615502497,20.3526374,22.10119125,15.62233262,30.94372277,"Diego Alonso Saldana, Laurie Starck, Pascal Mougin, Bernard Rousseau, Nicolas Ferrando, and Benoit Creton. Prediction of density and viscosity of biofuel compounds using machine learning methods. Energy & fuels, 26(4):2416-2426, 2012."
2465,methyl salicylate,COC(=O)c1ccccc1O,308.1,0.003245699,2.09,0.320146286,1.175430228,0.01,22.46410891,8.525072005,20.2016358,21.92686971,15.48650402,30.95521782,"Diego Alonso Saldana, Laurie Starck, Pascal Mougin, Bernard Rousseau, Nicolas Ferrando, and Benoit Creton. Prediction of density and viscosity of biofuel compounds using machine learning methods. Energy & fuels, 26(4):2416-2426, 2012."
2466,methyl salicylate,COC(=O)c1ccccc1O,313.1,0.003193868,1.85,0.267171728,1.174908555,0.01,22.46618812,8.489646159,20.16545192,21.87980754,15.43924973,31.0279703,"Diego Alonso Saldana, Laurie Starck, Pascal Mougin, Bernard Rousseau, Nicolas Ferrando, and Benoit Creton. Prediction of density and viscosity of biofuel compounds using machine learning methods. Energy & fuels, 26(4):2416-2426, 2012."
2467,methyl salicylate,COC(=O)c1ccccc1O,318.1,0.003143666,1.65,0.217483944,1.171217503,0.02,22.48969307,8.424945704,20.07475692,21.77110452,15.34854451,31.10571287,"Diego Alonso Saldana, Laurie Starck, Pascal Mougin, Bernard Rousseau, Nicolas Ferrando, and Benoit Creton. Prediction of density and viscosity of biofuel compounds using machine learning methods. Energy & fuels, 26(4):2416-2426, 2012."
2468,methyl salicylate,COC(=O)c1ccccc1O,353.6,0.002828054,1.03,0.012837225,1.13182016,0.07,22.74805941,7.948615034,19.22249812,20.80129712,14.60486271,31.44962376,"Diego Alonso Saldana, Laurie Starck, Pascal Mougin, Bernard Rousseau, Nicolas Ferrando, and Benoit Creton. Prediction of density and viscosity of biofuel compounds using machine learning methods. Energy & fuels, 26(4):2416-2426, 2012."
2469,methyl salicylate,COC(=O)c1ccccc1O,383.0,0.002610966,0.73,-0.13667714,1.106959121,0.09,22.92030693,7.604182456,18.67809806,20.16686115,14.12164897,31.59628713,"Diego Alonso Saldana, Laurie Starck, Pascal Mougin, Bernard Rousseau, Nicolas Ferrando, and Benoit Creton. Prediction of density and viscosity of biofuel compounds using machine learning methods. Energy & fuels, 26(4):2416-2426, 2012."
2470,methyl salicylate,COC(=O)c1ccccc1O,393.1,0.002543882,0.66,-0.180456065,1.097857935,0.16,22.97810891,7.515596538,18.4725828,19.94314907,13.95527202,31.66161386,"Diego Alonso Saldana, Laurie Starck, Pascal Mougin, Bernard Rousseau, Nicolas Ferrando, and Benoit Creton. Prediction of density and viscosity of biofuel compounds using machine learning methods. Energy & fuels, 26(4):2416-2426, 2012."
2471,methyl salicylate,COC(=O)c1ccccc1O,398.3,0.00251067,0.63,-0.200659451,1.086557183,0.14,23.05971287,7.394387826,18.24568941,19.68734135,13.76332112,31.78726733,"Diego Alonso Saldana, Laurie Starck, Pascal Mougin, Bernard Rousseau, Nicolas Ferrando, and Benoit Creton. Prediction of density and viscosity of biofuel compounds using machine learning methods. Energy & fuels, 26(4):2416-2426, 2012."
2472,Tert-butyl methyl ether,COC(C)(C)C,298.15,0.003354016,0.34,-0.468521083,0.73890678,0.32,22.26211881,4.039937498,14.69104027,15.23665106,7.211924147,30.63082178,"Valentin Goussard, Francois Duprat, Jean-Luc Ploix, G erard Dreyfus, Veronique Nardello-Rataj, and Jean-Marie Aubry. A new machine-learning tool for fast estimation of liquid viscosity. application to cosmetic oils. Journal of Chemical Information and Modeling, 60(4):2012-2023, 2020."
2473,methyl acetate,COC(C)=O,273.49,0.003656441,0.4762,-0.322210609,0.977486481,0.03,22.5390495,9.635117023,18.25120898,20.63844727,8.258693236,31.258,"WE Wasburn. International critical tables of numerical data, physics, chemistry and technology. 1st electronic edition. Knovel: Norwich, NY, 2003."
2474,methyl ethanoate,COC(C)=O,273.5,0.003656307,0.48,-0.318758763,0.974814411,0.05,22.56812871,9.613395225,18.19729167,20.58066573,8.236593572,31.23330693,"Diego Alonso Saldana, Laurie Starck, Pascal Mougin, Bernard Rousseau, Nicolas Ferrando, and Benoit Creton. Prediction of density and viscosity of biofuel compounds using machine learning methods. Energy & fuels, 26(4):2416-2426, 2012."
2475,methyl acetate,COC(C)=O,279.46,0.00357833,0.4436,-0.353008463,0.966274853,0.04,22.63127723,9.486910926,18.00274697,20.34957753,8.14312578,31.35415842,"WE Wasburn. International critical tables of numerical data, physics, chemistry and technology. 1st electronic edition. Knovel: Norwich, NY, 2003."
2476,methyl ethanoate,COC(C)=O,279.5,0.003577818,0.44,-0.356547324,0.970345701,0.05,22.59446535,9.527743473,18.08834252,20.4443172,8.181885888,31.30222772,"Diego Alonso Saldana, Laurie Starck, Pascal Mougin, Bernard Rousseau, Nicolas Ferrando, and Benoit Creton. Prediction of density and viscosity of biofuel compounds using machine learning methods. Energy & fuels, 26(4):2416-2426, 2012."
2477,methyl acetate,COC(C)=O,284.56,0.003514197,0.4186,-0.378200776,0.96169552,0.05,22.66669307,9.414062723,17.89710367,20.22215577,8.094216796,31.46620792,"WE Wasburn. International critical tables of numerical data, physics, chemistry and technology. 1st electronic edition. Knovel: Norwich, NY, 2003."
2478,methyl ethanoate,COC(C)=O,284.6,0.003513703,0.42,-0.37675071,0.962958758,0.08,22.65141584,9.422811304,17.92265839,20.24882802,8.104262204,31.4220297,"Diego Alonso Saldana, Laurie Starck, Pascal Mougin, Bernard Rousseau, Nicolas Ferrando, and Benoit Creton. Prediction of density and viscosity of biofuel compounds using machine learning methods. Energy & fuels, 26(4):2416-2426, 2012."
2479,methyl acetate,COC(C)=O,289.85,0.00345006,0.3948,-0.403622856,0.953130337,0.07,22.72694059,9.303168673,17.69869054,19.99492648,8.002633213,31.45224752,"WE Wasburn. International critical tables of numerical data, physics, chemistry and technology. 1st electronic edition. Knovel: Norwich, NY, 2003."
2480,methyl ethanoate,COC(C)=O,289.9,0.003449465,0.39,-0.408935393,0.955963778,0.06,22.70474257,9.327748294,17.7561445,20.05722079,8.026921115,31.41924752,"Diego Alonso Saldana, Laurie Starck, Pascal Mougin, Bernard Rousseau, Nicolas Ferrando, and Benoit Creton. Prediction of density and viscosity of biofuel compounds using machine learning methods. Energy & fuels, 26(4):2416-2426, 2012."
2481,methyl ethanoate,COC(C)=O,292.6,0.003417635,0.39,-0.408935393,0.948691749,0.1,22.77323762,9.236589606,17.61182589,19.88706031,7.962554457,31.5200396,"Diego Alonso Saldana, Laurie Starck, Pascal Mougin, Bernard Rousseau, Nicolas Ferrando, and Benoit Creton. Prediction of density and viscosity of biofuel compounds using machine learning methods. Energy & fuels, 26(4):2416-2426, 2012."
2482,methyl ethanoate,COC(C)=O,293.1,0.003411805,0.38,-0.420216403,0.957298067,0.06,22.69653465,9.310948347,17.77448324,20.06562776,8.029137895,31.43046535,"Diego Alonso Saldana, Laurie Starck, Pascal Mougin, Bernard Rousseau, Nicolas Ferrando, and Benoit Creton. Prediction of density and viscosity of biofuel compounds using machine learning methods. Energy & fuels, 26(4):2416-2426, 2012."
2483,methyl ethanoate,COC(C)=O,293.5,0.003407155,0.38,-0.420216403,0.954539645,0.07,22.71278218,9.300894417,17.72135744,20.01393796,8.01303694,31.50687129,"Diego Alonso Saldana, Laurie Starck, Pascal Mougin, Bernard Rousseau, Nicolas Ferrando, and Benoit Creton. Prediction of density and viscosity of biofuel compounds using machine learning methods. Energy & fuels, 26(4):2416-2426, 2012."
2484,methyl acetate,COC(C)=O,295.89,0.003379634,0.3706,-0.431094585,0.946490038,0.08,22.78559406,9.203717316,17.55093292,19.81789195,7.934886382,31.63416832,"WE Wasburn. International critical tables of numerical data, physics, chemistry and technology. 1st electronic edition. Knovel: Norwich, NY, 2003."
2485,methyl ethanoate,COC(C)=O,295.9,0.00337952,0.37,-0.431798276,0.94339924,0.07,22.80533663,9.165740208,17.49116692,19.74732689,7.906566399,31.61607921,"Diego Alonso Saldana, Laurie Starck, Pascal Mougin, Bernard Rousseau, Nicolas Ferrando, and Benoit Creton. Prediction of density and viscosity of biofuel compounds using machine learning methods. Energy & fuels, 26(4):2416-2426, 2012."
2486,methyl ethanoate,COC(C)=O,298.1,0.003354579,0.36,-0.443697499,0.943983586,0.07,22.80440594,9.177864836,17.48839814,19.75050017,7.908771042,31.6279703,"Diego Alonso Saldana, Laurie Starck, Pascal Mougin, Bernard Rousseau, Nicolas Ferrando, and Benoit Creton. Prediction of density and viscosity of biofuel compounds using machine learning methods. Energy & fuels, 26(4):2416-2426, 2012."
2487,methyl ethanoate,COC(C)=O,301.5,0.00331675,0.35,-0.455931956,0.936190955,0.09,22.86439604,9.076074616,17.32322814,19.55693809,7.832541079,31.76030693,"Diego Alonso Saldana, Laurie Starck, Pascal Mougin, Bernard Rousseau, Nicolas Ferrando, and Benoit Creton. Prediction of density and viscosity of biofuel compounds using machine learning methods. Energy & fuels, 26(4):2416-2426, 2012."
2488,methyl acetate,COC(C)=O,301.53,0.00331642,0.3492,-0.456925765,0.935277455,0.12,22.87422772,9.070800011,17.31250178,19.5450076,7.83083352,31.67458416,"WE Wasburn. International critical tables of numerical data, physics, chemistry and technology. 1st electronic edition. Knovel: Norwich, NY, 2003."
2489,methyl ethanoate,COC(C)=O,303.1,0.003299241,0.34,-0.468521083,0.945404316,0.07,22.79193069,9.152010184,17.50917531,19.75692097,7.912464757,31.58748515,"Diego Alonso Saldana, Laurie Starck, Pascal Mougin, Bernard Rousseau, Nicolas Ferrando, and Benoit Creton. Prediction of density and viscosity of biofuel compounds using machine learning methods. Energy & fuels, 26(4):2416-2426, 2012."
2490,methyl ethanoate,COC(C)=O,307.6,0.003250975,0.33,-0.48148606,0.935473539,0.1,22.86892079,9.037392736,17.29364115,19.51279278,7.81757073,31.6749604,"Diego Alonso Saldana, Laurie Starck, Pascal Mougin, Bernard Rousseau, Nicolas Ferrando, and Benoit Creton. Prediction of density and viscosity of biofuel compounds using machine learning methods. Energy & fuels, 26(4):2416-2426, 2012."
2491,methyl ethanoate,COC(C)=O,313.1,0.003193868,0.31,-0.508638306,0.925134901,0.12,22.95257426,8.904946742,17.07071373,19.25386044,7.716916592,31.81453465,"Diego Alonso Saldana, Laurie Starck, Pascal Mougin, Bernard Rousseau, Nicolas Ferrando, and Benoit Creton. Prediction of density and viscosity of biofuel compounds using machine learning methods. Energy & fuels, 26(4):2416-2426, 2012."
2492,methyl ethanoate,COC(C)=O,319.2,0.003132832,0.29,-0.537602002,0.917969895,0.16,23.01686139,8.801136797,16.9088504,19.06237082,7.642908107,31.88980198,"Diego Alonso Saldana, Laurie Starck, Pascal Mougin, Bernard Rousseau, Nicolas Ferrando, and Benoit Creton. Prediction of density and viscosity of biofuel compounds using machine learning methods. Energy & fuels, 26(4):2416-2426, 2012."
2493,methyl acetate,COC(C)=O,319.21,0.003132734,0.2942,-0.531357332,0.907986634,0.23,23.09585149,8.712667721,16.72148088,18.85536384,7.566927332,31.97069307,"WE Wasburn. International critical tables of numerical data, physics, chemistry and technology. 1st electronic edition. Knovel: Norwich, NY, 2003."