Index,Name,CANON_SMILES,Temperature (K),Inverse temperature (1/K),Viscosity (cP),log(Viscosity),MD_density,MD_FV,MD_Rg,MD_SP_E,MD_SP_V,MD_SP,MD_HV,MD_RMSD,Reference
1289,n-hexane,CCCCCC,317.3,0.003151592,0.25,-0.602059991,0.623511302,0.97,22.5510198,0.526704532,13.62880845,13.63901695,6.775601232,31.03455446,"Diego Alonso Saldana, Laurie Starck, Pascal Mougin, Bernard Rousseau, Nicolas Ferrando, and Benoit Creton. Prediction of density and viscosity of biofuel compounds using machine learning methods. Energy & fuels, 26(4):2416-2426, 2012."
1290,n-hexane,CCCCCC,320.57,0.003119443,0.247,-0.607303047,0.616049424,1.18,22.64607921,0.509900637,13.44428169,13.45399958,6.688944871,31.25164356,"WE Wasburn. International critical tables of numerical data, physics, chemistry and technology. 1st electronic edition. Knovel: Norwich, NY, 2003."
1291,n-hexane,CCCCCC,323.0,0.003095975,0.24,-0.619788758,0.618215605,0.94,22.61043564,0.511324532,13.48857485,13.49829666,6.712352175,31.15448515,"Diego Alonso Saldana, Laurie Starck, Pascal Mougin, Bernard Rousseau, Nicolas Ferrando, and Benoit Creton. Prediction of density and viscosity of biofuel compounds using machine learning methods. Energy & fuels, 26(4):2416-2426, 2012."
1292,n-hexane,CCCCCC,326.05,0.003067014,0.2351,-0.628747371,0.603603257,1.36,22.78952475,0.501224363,13.12139944,13.13101436,6.531600837,31.45742574,"WE Wasburn. International critical tables of numerical data, physics, chemistry and technology. 1st electronic edition. Knovel: Norwich, NY, 2003."
1293,n-hexane,CCCCCC,326.6,0.003061849,0.23,-0.638272164,0.608709969,1.12,22.72917822,0.507694908,13.24335857,13.2531218,6.592357581,31.28005941,"Diego Alonso Saldana, Laurie Starck, Pascal Mougin, Bernard Rousseau, Nicolas Ferrando, and Benoit Creton. Prediction of density and viscosity of biofuel compounds using machine learning methods. Energy & fuels, 26(4):2416-2426, 2012."
1294,n-hexane,CCCCCC,331.91,0.003012865,0.2231,-0.65150043,0.610298063,1.16,22.7170099,0.509591655,13.25915168,13.26897747,6.601631026,31.27974257,"WE Wasburn. International critical tables of numerical data, physics, chemistry and technology. 1st electronic edition. Knovel: Norwich, NY, 2003."
1295,n-hexane,CCCCCC,336.74,0.00296965,0.2143,-0.668977829,0.59827888,1.65,22.88317822,0.498327654,12.95295358,12.96256866,6.453896823,31.6110396,"WE Wasburn. International critical tables of numerical data, physics, chemistry and technology. 1st electronic edition. Knovel: Norwich, NY, 2003."
1296,n-hexane,CCCCCC,338.15,0.002957267,0.2177,-0.662141571,0.591026962,1.74,22.95964356,0.485366923,12.77367332,12.78293462,6.366511271,31.73806931,"WE Wasburn. International critical tables of numerical data, physics, chemistry and technology. 1st electronic edition. Knovel: Norwich, NY, 2003."
1297,Hexanenitrile,CCCCCC#N,288.15,0.003470415,1.041,0.01745073,0.779306317,0.18,22.58123762,9.586379304,15.34929186,18.09705836,10.33160033,31.1259901,"A Dean John et al. Lange's handbook of chemistry. In Universitas Of Tennese Knoxville, Fifthenth Edition, Mc. Graw Hill Inc, New York. Conference, 1999."
1298,Hexanenitrile,CCCCCC#N,303.15,0.003298697,0.83,-0.080921908,0.763649136,0.26,22.73746535,9.348859121,14.94867998,17.6314431,10.05563401,31.33549505,"A Dean John et al. Lange's handbook of chemistry. In Universitas Of Tennese Knoxville, Fifthenth Edition, Mc. Graw Hill Inc, New York. Conference, 1999."
1299,Hexanoic acid,CCCCCC(=O)O,288.15,0.003470415,3.525,0.547159121,0.944924032,0.07,21.68339604,15.70412124,17.72705103,23.6829536,17.05195682,29.78763366,"A Dean John et al. Lange's handbook of chemistry. In Universitas Of Tennese Knoxville, Fifthenth Edition, Mc. Graw Hill Inc, New York. Conference, 1999."
1300,Hexanoic acid,CCCCCC(=O)O,303.15,0.003298697,2.511,0.399846713,0.935949617,0.05,21.76172277,15.42853862,17.50223384,23.33200959,16.75036396,29.99209901,"A Dean John et al. Lange's handbook of chemistry. In Universitas Of Tennese Knoxville, Fifthenth Edition, Mc. Graw Hill Inc, New York. Conference, 1999."
1301,caproic acid,CCCCCC(=O)O,313.15,0.003193358,2.12,0.326335861,0.924426121,0.13,21.85381188,15.21728539,17.23709383,22.99343177,16.50050012,30.1630099,"WE Wasburn. International critical tables of numerical data, physics, chemistry and technology. 1st electronic edition. Knovel: Norwich, NY, 2003."
1302,caproic acid,CCCCCC(=O)O,323.15,0.003094538,1.75,0.243038049,0.912558303,0.08,21.94270297,14.97279854,16.97406088,22.63446177,16.22859182,30.11727723,"WE Wasburn. International critical tables of numerical data, physics, chemistry and technology. 1st electronic edition. Knovel: Norwich, NY, 2003."
1303,caproic acid,CCCCCC(=O)O,343.15,0.002914177,1.29,0.11058971,0.896569546,0.13,22.07061386,14.445562,16.61904717,22.02002699,15.6966837,30.46509901,"WE Wasburn. International critical tables of numerical data, physics, chemistry and technology. 1st electronic edition. Knovel: Norwich, NY, 2003."
1304,caproic acid,CCCCCC(=O)O,363.15,0.002753683,0.98,-0.008773924,0.87856483,0.26,22.21907921,14.0269334,16.21252409,21.43872613,15.24585742,30.65372277,"WE Wasburn. International critical tables of numerical data, physics, chemistry and technology. 1st electronic edition. Knovel: Norwich, NY, 2003."
1305,Methyl hexanoate,CCCCCC(=O)OC,298.15,0.003354016,0.83,-0.080921908,0.894218195,0.05,21.90657426,5.660818782,17.28212347,18.18576199,12.10037252,30.16689109,"Valentin Goussard, Francois Duprat, Jean-Luc Ploix, G erard Dreyfus, Veronique Nardello-Rataj, and Jean-Marie Aubry. A new machine-learning tool for fast estimation of liquid viscosity. application to cosmetic oils. Journal of Chemical Information and Modeling, 60(4):2012-2023, 2020."
1306,Ethyl hexanoate,CCCCCC(=O)OCC,298.15,0.003354016,0.97,-0.013228266,0.874191987,0.1,21.92851485,4.762036067,17.05737983,17.70983621,12.95874529,30.23255446,"Valentin Goussard, Francois Duprat, Jean-Luc Ploix, G erard Dreyfus, Veronique Nardello-Rataj, and Jean-Marie Aubry. A new machine-learning tool for fast estimation of liquid viscosity. application to cosmetic oils. Journal of Chemical Information and Modeling, 60(4):2012-2023, 2020."
1307,"1,2,3-tris-(hexanoyloxy)-propane",CCCCCC(=O)OCC(COC(=O)CCCCC)OC(=O)CCCCC,298.15,0.003354016,14.0,1.146128036,0.987133147,0.03,21.58680198,5.656546904,17.54409485,18.43377197,32.39387323,27.43960396,"Valentin Goussard, Francois Duprat, Jean-Luc Ploix, G erard Dreyfus, Veronique Nardello-Rataj, and Jean-Marie Aubry. A new machine-learning tool for fast estimation of liquid viscosity. application to cosmetic oils. Journal of Chemical Information and Modeling, 60(4):2012-2023, 2020."
1308,2-Heptanone,CCCCCC(C)=O,288.15,0.003470415,0.854,-0.068542129,0.832243689,0.09,21.80571287,7.334588321,16.82643764,18.35567419,11.62150301,30.10806931,"A Dean John et al. Lange's handbook of chemistry. In Universitas Of Tennese Knoxville, Fifthenth Edition, Mc. Graw Hill Inc, New York. Conference, 1999."
1309,2-Heptanone,CCCCCC(C)=O,303.15,0.003298697,0.686,-0.163675884,0.810743897,0.14,21.99353465,7.083192002,16.28248357,17.75659405,11.21604382,30.32706931,"A Dean John et al. Lange's handbook of chemistry. In Universitas Of Tennese Knoxville, Fifthenth Edition, Mc. Graw Hill Inc, New York. Conference, 1999."
1310,Isooctane,CCCCCC(C)C,298.15,0.003354016,0.49,-0.30980392,0.696957233,0.31,21.87709901,0.563974846,14.83316746,14.84391812,9.223990817,30.12515842,"Valentin Goussard, Francois Duprat, Jean-Luc Ploix, G erard Dreyfus, Veronique Nardello-Rataj, and Jean-Marie Aubry. A new machine-learning tool for fast estimation of liquid viscosity. application to cosmetic oils. Journal of Chemical Information and Modeling, 60(4):2012-2023, 2020."
1311,n-Hexyl bromide,CCCCCCBr,293.15,0.003411223,1.01,0.004321374,1.193252674,0.12,22.55883168,4.849014804,17.02667511,17.70383202,10.94586829,31.1379505,"Dabir S Viswanath, Tushar K Ghosh, Dasika HL Prasad, Nidamarty VK Dutt, Kalipatnapu Y Rani, Dabir S Viswanath, Tushar K Ghosh, Dasika HL Prasad, Nidamarty VK Dutt, and Kalipatnapu Y Rani. Correlations and estimation of pure liquid viscosity.Viscosity of Liquids: Theory, Estimation, Experiment, and Data, pages 135-405, 2007."
1312,n-heptane,CCCCCCC,233.1,0.004290004,0.95,-0.022276395,0.733132103,0.11,21.45363366,0.642676797,16.48519787,16.49775104,9.354454235,29.51421782,"Diego Alonso Saldana, Laurie Starck, Pascal Mougin, Bernard Rousseau, Nicolas Ferrando, and Benoit Creton. Prediction of density and viscosity of biofuel compounds using machine learning methods. Energy & fuels, 26(4):2416-2426, 2012."
1313,n-heptane,CCCCCCC,253.1,0.003951008,0.68,-0.167491087,0.716924474,0.09,21.61652475,0.626981635,15.96398537,15.97632205,9.029555557,29.72052475,"Diego Alonso Saldana, Laurie Starck, Pascal Mougin, Bernard Rousseau, Nicolas Ferrando, and Benoit Creton. Prediction of density and viscosity of biofuel compounds using machine learning methods. Energy & fuels, 26(4):2416-2426, 2012."
1314,n-heptane,CCCCCCC,273.1,0.003661662,0.52,-0.283996656,0.701368755,0.14,21.77475248,0.614041846,15.48179896,15.49400009,8.740118819,30.01866337,"Diego Alonso Saldana, Laurie Starck, Pascal Mougin, Bernard Rousseau, Nicolas Ferrando, and Benoit Creton. Prediction of density and viscosity of biofuel compounds using machine learning methods. Energy & fuels, 26(4):2416-2426, 2012."
1315,n-heptane,CCCCCCC,279.58,0.003576794,0.4797,-0.319030282,0.691801382,0.22,21.8709703,0.595100407,15.21390843,15.22557895,8.580895431,30.17211881,"WE Wasburn. International critical tables of numerical data, physics, chemistry and technology. 1st electronic edition. Knovel: Norwich, NY, 2003."
1316,n-heptane,CCCCCCC,279.71,0.003575131,0.4795,-0.319211389,0.687679562,0.29,21.9190198,0.593528523,15.10388637,15.11558268,8.513039465,30.1200198,"WE Wasburn. International critical tables of numerical data, physics, chemistry and technology. 1st electronic edition. Knovel: Norwich, NY, 2003."
1317,n-heptane,CCCCCCC,283.1,0.003532321,0.46,-0.337242168,0.686905382,0.25,21.91719802,0.589203961,15.07489266,15.08644232,8.498040224,30.23747525,"Diego Alonso Saldana, Laurie Starck, Pascal Mougin, Bernard Rousseau, Nicolas Ferrando, and Benoit Creton. Prediction of density and viscosity of biofuel compounds using machine learning methods. Energy & fuels, 26(4):2416-2426, 2012."
1318,n-heptane,CCCCCCC,286.6,0.003489184,0.4418,-0.354774289,0.685367118,0.33,21.94641584,0.589970917,15.01046271,15.02208765,8.455098726,30.27715842,"WE Wasburn. International critical tables of numerical data, physics, chemistry and technology. 1st electronic edition. Knovel: Norwich, NY, 2003."
1319,n-heptane,CCCCCCC,292.0,0.003424658,0.42,-0.37675071,0.6778727,0.32,22.01409901,0.575387976,14.80219694,14.81340634,8.333048414,30.4169901,"Diego Alonso Saldana, Laurie Starck, Pascal Mougin, Bernard Rousseau, Nicolas Ferrando, and Benoit Creton. Prediction of density and viscosity of biofuel compounds using machine learning methods. Energy & fuels, 26(4):2416-2426, 2012."
1320,n-heptane,CCCCCCC,293.1,0.003411805,0.41,-0.387216143,0.675139959,0.4,22.04346535,0.573532358,14.73802951,14.74921884,8.299293927,30.31785149,"Diego Alonso Saldana, Laurie Starck, Pascal Mougin, Bernard Rousseau, Nicolas Ferrando, and Benoit Creton. Prediction of density and viscosity of biofuel compounds using machine learning methods. Energy & fuels, 26(4):2416-2426, 2012."
1321,Heptane,CCCCCCC,293.15,0.003411223,0.416,-0.380906669,0.673781892,0.37,22.06554455,0.571755627,14.69726005,14.70841628,8.272236704,30.40926733,"A Dean John et al. Lange's handbook of chemistry. In Universitas Of Tennese Knoxville, Fifthenth Edition, Mc. Graw Hill Inc, New York. Conference, 1999."
1322,n-heptane,CCCCCCC,294.89,0.003391095,0.4027,-0.39501837,0.670040874,0.39,22.10679208,0.563119804,14.60003938,14.61093087,8.216477613,30.43912871,"WE Wasburn. International critical tables of numerical data, physics, chemistry and technology. 1st electronic edition. Knovel: Norwich, NY, 2003."
1323,n-heptane,CCCCCCC,297.3,0.003363606,0.39,-0.408935393,0.676900606,0.33,22.02834653,0.577350385,14.76784917,14.77916489,8.318868264,30.31969307,"Diego Alonso Saldana, Laurie Starck, Pascal Mougin, Bernard Rousseau, Nicolas Ferrando, and Benoit Creton. Prediction of density and viscosity of biofuel compounds using machine learning methods. Energy & fuels, 26(4):2416-2426, 2012."
1324,n-heptane,CCCCCCC,297.4,0.003362475,0.39,-0.408935393,0.667748948,0.47,22.12718812,0.559425933,14.53363675,14.54443873,8.178108168,30.50506931,"Diego Alonso Saldana, Laurie Starck, Pascal Mougin, Bernard Rousseau, Nicolas Ferrando, and Benoit Creton. Prediction of density and viscosity of biofuel compounds using machine learning methods. Energy & fuels, 26(4):2416-2426, 2012."
1325,n-heptane,CCCCCCC,298.1,0.003354579,0.39,-0.408935393,0.671276045,0.44,22.09361386,0.572316916,14.62102266,14.63225925,8.231062515,30.49270297,"Diego Alonso Saldana, Laurie Starck, Pascal Mougin, Bernard Rousseau, Nicolas Ferrando, and Benoit Creton. Prediction of density and viscosity of biofuel compounds using machine learning methods. Energy & fuels, 26(4):2416-2426, 2012."
1326,n-heptane,CCCCCCC,303.1,0.003299241,0.37,-0.431798276,0.663976401,0.55,22.17261386,0.558477082,14.41696867,14.42782021,8.110669114,30.49805941,"Diego Alonso Saldana, Laurie Starck, Pascal Mougin, Bernard Rousseau, Nicolas Ferrando, and Benoit Creton. Prediction of density and viscosity of biofuel compounds using machine learning methods. Energy & fuels, 26(4):2416-2426, 2012."
1327,n-heptane,CCCCCCC,303.42,0.003295762,0.3685,-0.433562508,0.670097071,0.4,22.10680198,0.563473989,14.57359006,14.58451191,8.20521936,30.33841584,"WE Wasburn. International critical tables of numerical data, physics, chemistry and technology. 1st electronic edition. Knovel: Norwich, NY, 2003."
1328,n-heptane,CCCCCCC,303.9,0.003290556,0.37,-0.431798276,0.67183341,0.49,22.08533663,0.571279061,14.6126194,14.62381963,8.22745001,30.34506931,"Diego Alonso Saldana, Laurie Starck, Pascal Mougin, Bernard Rousseau, Nicolas Ferrando, and Benoit Creton. Prediction of density and viscosity of biofuel compounds using machine learning methods. Energy & fuels, 26(4):2416-2426, 2012."
1329,n-heptane,CCCCCCC,308.1,0.003245699,0.35,-0.455931956,0.662011343,0.62,22.18606931,0.558118871,14.35480814,14.36568913,8.078175918,30.5619802,"Diego Alonso Saldana, Laurie Starck, Pascal Mougin, Bernard Rousseau, Nicolas Ferrando, and Benoit Creton. Prediction of density and viscosity of biofuel compounds using machine learning methods. Energy & fuels, 26(4):2416-2426, 2012."
1330,n-heptane,CCCCCCC,311.49,0.003210376,0.3397,-0.468904453,0.661569501,0.57,22.20056436,0.560118163,14.32735521,14.33833594,8.061484595,30.53332673,"WE Wasburn. International critical tables of numerical data, physics, chemistry and technology. 1st electronic edition. Knovel: Norwich, NY, 2003."
1331,n-heptane,CCCCCCC,313.1,0.003193868,0.33,-0.48148606,0.657383948,0.53,22.2440297,0.555737375,14.2183351,14.22922632,7.998527359,30.61587129,"Diego Alonso Saldana, Laurie Starck, Pascal Mougin, Bernard Rousseau, Nicolas Ferrando, and Benoit Creton. Prediction of density and viscosity of biofuel compounds using machine learning methods. Energy & fuels, 26(4):2416-2426, 2012."
1332,Heptane,CCCCCCC,313.15,0.003193358,0.341,-0.467245621,0.653166233,0.6,22.2989901,0.543672825,14.11284521,14.12334802,7.936185362,30.71463366,"A Dean John et al. Lange's handbook of chemistry. In Universitas Of Tennese Knoxville, Fifthenth Edition, Mc. Graw Hill Inc, New York. Conference, 1999."
1333,n-heptane,CCCCCCC,313.7,0.003187759,0.33,-0.48148606,0.666468345,0.45,22.14686139,0.565042046,14.43811949,14.44921234,8.125891635,30.49519802,"Diego Alonso Saldana, Laurie Starck, Pascal Mougin, Bernard Rousseau, Nicolas Ferrando, and Benoit Creton. Prediction of density and viscosity of biofuel compounds using machine learning methods. Energy & fuels, 26(4):2416-2426, 2012."
1334,n-heptane,CCCCCCC,313.8,0.003186743,0.33,-0.48148606,0.654899982,0.77,22.27010891,0.548295109,14.15269761,14.16335308,7.95947905,30.74607921,"Diego Alonso Saldana, Laurie Starck, Pascal Mougin, Bernard Rousseau, Nicolas Ferrando, and Benoit Creton. Prediction of density and viscosity of biofuel compounds using machine learning methods. Energy & fuels, 26(4):2416-2426, 2012."
1335,n-heptane,CCCCCCC,320.4,0.003121099,0.3112,-0.506960412,0.646504059,0.68,22.37427723,0.535587829,13.91568433,13.92602443,7.820935455,30.72252475,"WE Wasburn. International critical tables of numerical data, physics, chemistry and technology. 1st electronic edition. Knovel: Norwich, NY, 2003."
1336,n-heptane,CCCCCCC,328.18,0.003047108,0.289,-0.539102157,0.638266972,1.08,22.4669505,0.530240087,13.68498283,13.69530016,7.689969587,30.89923762,"WE Wasburn. International critical tables of numerical data, physics, chemistry and technology. 1st electronic edition. Knovel: Norwich, NY, 2003."
1337,n-heptane,CCCCCCC,333.4,0.0029994,0.28,-0.552841969,0.648411442,0.73,22.35020792,0.545114541,13.93129007,13.94198903,7.842060155,30.84175248,"Diego Alonso Saldana, Laurie Starck, Pascal Mougin, Bernard Rousseau, Nicolas Ferrando, and Benoit Creton. Prediction of density and viscosity of biofuel compounds using machine learning methods. Energy & fuels, 26(4):2416-2426, 2012."
1338,n-heptane,CCCCCCC,335.19,0.002983383,0.2714,-0.566390157,0.631947779,1.09,22.54160396,0.524257381,13.51739921,13.52760053,7.60126656,31.08214851,"WE Wasburn. International critical tables of numerical data, physics, chemistry and technology. 1st electronic edition. Knovel: Norwich, NY, 2003."
1339,n-heptane,CCCCCCC,343.24,0.002913413,0.2526,-0.597566654,0.621934716,1.31,22.6509604,0.518226814,13.24452105,13.25470183,7.447481833,31.24427723,"WE Wasburn. International critical tables of numerical data, physics, chemistry and technology. 1st electronic edition. Knovel: Norwich, NY, 2003."
1340,n-heptane,CCCCCCC,346.5,0.002886003,0.25,-0.602059991,0.606213845,1.78,22.84547525,0.49297142,12.85819583,12.8676785,7.22999097,31.34477228,"Diego Alonso Saldana, Laurie Starck, Pascal Mougin, Bernard Rousseau, Nicolas Ferrando, and Benoit Creton. Prediction of density and viscosity of biofuel compounds using machine learning methods. Energy & fuels, 26(4):2416-2426, 2012."
1341,n-heptane,CCCCCCC,350.85,0.002850221,0.2372,-0.624885315,0.605429893,1.74,22.85751485,0.497710921,12.82224615,12.83194892,7.210806977,31.40757426,"WE Wasburn. International critical tables of numerical data, physics, chemistry and technology. 1st electronic edition. Knovel: Norwich, NY, 2003."
1342,n-heptane,CCCCCCC,358.64,0.002788311,0.2218,-0.654038458,0.606635342,1.44,22.83982178,0.493342591,12.82671531,12.83624347,7.217672506,31.45691089,"WE Wasburn. International critical tables of numerical data, physics, chemistry and technology. 1st electronic edition. Knovel: Norwich, NY, 2003."
1343,n-heptane,CCCCCCC,365.36,0.002737026,0.2096,-0.678608722,0.596250379,1.81,22.98893069,0.484044888,12.56270421,12.5720567,7.074710097,31.5159802,"WE Wasburn. International critical tables of numerical data, physics, chemistry and technology. 1st electronic edition. Knovel: Norwich, NY, 2003."
1344,heptylic acid,CCCCCCC(=O)O,290.65,0.003440564,4.6,0.662757832,0.93245788,0.04,21.60016832,14.71544406,17.61402124,22.95237849,18.1569021,29.30523762,"WE Wasburn. International critical tables of numerical data, physics, chemistry and technology. 1st electronic edition. Knovel: Norwich, NY, 2003."
1345,heptanoic acid,CCCCCCC(=O)O,291.15,0.003434656,4.355118737,0.639,0.932003384,0.06,21.6090198,14.71595485,17.6027785,22.94407645,18.15377704,29.50016832,"Marina Cocchi, Pier Giuseppe De Benedetti, Renato Seeber, Lorenzo Tassi, and Alessandro Ulrici. Development of quantitative structure- property relationships using calculated descriptors for the prediction of the physicochemical properties of a series of organic solvents. Journal of chemical information and computer sciences, 39(6):1190-1203, 1999."