Index,Name,CANON_SMILES,Temperature (K),Inverse temperature (1/K),Viscosity (cP),log(Viscosity),MD_density,MD_FV,MD_Rg,MD_SP_E,MD_SP_V,MD_SP,MD_HV,MD_RMSD,Reference
2548,benzyl methyl ether,COCc1ccccc1,318.15,0.003143171,1.042,0.017867719,0.943329792,0.08,22.468,7.168757101,17.52323299,18.93318034,11.72772986,31.01137624,"WE Wasburn. International critical tables of numerical data, physics, chemistry and technology. 1st electronic edition. Knovel: Norwich, NY, 2003."
2549,Trimethyl phosphite,COP(OC)OC,293.15,0.003411223,0.61,-0.214670165,1.069752764,0.04,22.91754455,8.222424816,18.56307989,20.30277935,12.00930163,31.73146535,"A Dean John et al. Lange's handbook of chemistry. In Universitas Of Tennese Knoxville, Fifthenth Edition, Mc. Graw Hill Inc, New York. Conference, 1999."
2550,dimethyl sulfate,COS(=O)(=O)OC,273.15,0.003660992,2.732,0.436480695,1.361818402,0.01,22.78819802,13.55644968,20.60365245,24.66356693,14.0082242,31.5099802,"WE Wasburn. International critical tables of numerical data, physics, chemistry and technology. 1st electronic edition. Knovel: Norwich, NY, 2003."
2551,dimethyl sulfate,COS(=O)(=O)OC,349.65,0.002860003,0.802,-0.095825632,1.255100165,0.06,23.42027723,12.24947474,18.56886973,22.24539491,12.58065284,32.36066337,"WE Wasburn. International critical tables of numerical data, physics, chemistry and technology. 1st electronic edition. Knovel: Norwich, NY, 2003."
2552,Dimethyl sulfite,COS(=O)OC,303.15,0.003298697,0.715,-0.145693958,1.295388638,0.0,22.74482178,14.89386023,21.89027459,26.4767174,14.84690748,31.52284158,"A Dean John et al. Lange's handbook of chemistry. In Universitas Of Tennese Knoxville, Fifthenth Edition, Mc. Graw Hill Inc, New York. Conference, 1999."
2553,Dimethyl sulfite,COS(=O)OC,353.15,0.002831658,0.436,-0.360513511,1.227985268,0.04,23.15681188,13.84787743,20.4741625,24.7176513,13.79784946,32.02694059,"A Dean John et al. Lange's handbook of chemistry. In Universitas Of Tennese Knoxville, Fifthenth Edition, Mc. Graw Hill Inc, New York. Conference, 1999."
2554,thymyl methyl ether,COc1cc(C)ccc1C(C)C,293.15,0.003411223,2.288,0.35945602,0.944428112,0.06,21.77420792,5.797273095,17.62657688,18.5556714,14.894301,29.74425743,"WE Wasburn. International critical tables of numerical data, physics, chemistry and technology. 1st electronic edition. Knovel: Norwich, NY, 2003."
2555,p-cresyl methyl ether,COc1ccc(C)cc1,318.15,0.003143171,0.814,-0.089375595,0.945911418,0.09,22.44890099,7.523661051,17.6539519,19.19045984,12.00019704,30.97848515,"WE Wasburn. International critical tables of numerical data, physics, chemistry and technology. 1st electronic edition. Knovel: Norwich, NY, 2003."
2556,p-anisidine,COc1ccc(N)cc1,328.15,0.003047387,3.21,0.506505032,1.083178244,0.06,21.89963366,13.30445892,18.97784853,23.17710733,15.24961444,30.3149703,"WE Wasburn. International critical tables of numerical data, physics, chemistry and technology. 1st electronic edition. Knovel: Norwich, NY, 2003."
2557,p-methoxyphenol,COc1ccc(O)cc1,345.5,0.002894356,4.58,0.660865478,1.110501145,0.02,22.19109901,17.07367017,18.42190537,25.11750117,17.54245399,30.66133663,"Diego Alonso Saldana, Laurie Starck, Pascal Mougin, Bernard Rousseau, Nicolas Ferrando, and Benoit Creton. Prediction of density and viscosity of biofuel compounds using machine learning methods. Energy & fuels, 26(4):2416-2426, 2012."
2558,p-methoxyphenol,COc1ccc(O)cc1,365.1,0.002738976,2.75,0.439332694,1.097933018,0.04,22.27014851,16.5638513,18.19500316,24.60557343,17.08651295,30.84246535,"Diego Alonso Saldana, Laurie Starck, Pascal Mougin, Bernard Rousseau, Nicolas Ferrando, and Benoit Creton. Prediction of density and viscosity of biofuel compounds using machine learning methods. Energy & fuels, 26(4):2416-2426, 2012."
2559,p-methoxyphenol,COc1ccc(O)cc1,385.1,0.002596728,1.81,0.257678575,1.072333737,0.06,22.45577228,15.89886268,17.71764312,23.80558297,16.44530584,31.08651485,"Diego Alonso Saldana, Laurie Starck, Pascal Mougin, Bernard Rousseau, Nicolas Ferrando, and Benoit Creton. Prediction of density and viscosity of biofuel compounds using machine learning methods. Energy & fuels, 26(4):2416-2426, 2012."
2560,p-methoxyphenol,COc1ccc(O)cc1,404.1,0.002474635,1.34,0.127104798,1.066629435,0.1,22.48784158,15.55047037,17.60379054,23.48892932,16.1503834,31.01363366,"Diego Alonso Saldana, Laurie Starck, Pascal Mougin, Bernard Rousseau, Nicolas Ferrando, and Benoit Creton. Prediction of density and viscosity of biofuel compounds using machine learning methods. Energy & fuels, 26(4):2416-2426, 2012."
2561,Hydroquinone dimethyl ether,COc1ccc(OC)cc1,338.15,0.002957267,1.04,0.017033339,1.016314842,0.06,22.42732673,8.977394471,18.02776867,20.13949728,13.85087271,30.95665347,"Sunghwan Kim, Paul A Thiessen, Tiejun Cheng, Jian Zhang, Asta Gindulyte, and Evan E Bolton. Pug-view: programmatic access to chemical annotations integrated in pubchem. Journal of cheminformatics, 11(1):1-11, 2019."
2562,m-cresyl methyl ether,COc1cccc(C)c1,318.15,0.003143171,0.885,-0.053056729,0.954430057,0.04,22.37914851,7.593473643,17.83574496,19.38505425,12.12837188,30.91805941,"WE Wasburn. International critical tables of numerical data, physics, chemistry and technology. 1st electronic edition. Knovel: Norwich, NY, 2003."
2563,Anisole,COc1ccccc1,303.15,0.003298697,0.778,-0.109020403,0.989305335,0.06,22.46919802,8.547787039,18.38904782,20.2787226,11.34591823,31.08359406,"Sunghwan Kim, Paul A Thiessen, Tiejun Cheng, Jian Zhang, Asta Gindulyte, and Evan E Bolton. Pug-view: programmatic access to chemical annotations integrated in pubchem. Journal of cheminformatics, 11(1):1-11, 2019."
2564,o-cresyl methyl ether,COc1ccccc1C,318.15,0.003143171,0.858,-0.066512712,0.954061461,0.08,22.38436634,7.245057319,17.71116303,19.13586802,11.83903669,30.919,"WE Wasburn. International critical tables of numerical data, physics, chemistry and technology. 1st electronic edition. Knovel: Norwich, NY, 2003."
2565,guaiacol,COc1ccccc1O,320.4,0.003121099,2.62,0.418301291,1.089595428,0.03,22.32778218,10.87075551,18.81787294,21.73247619,13.49761488,30.82905941,"Diego Alonso Saldana, Laurie Starck, Pascal Mougin, Bernard Rousseau, Nicolas Ferrando, and Benoit Creton. Prediction of density and viscosity of biofuel compounds using machine learning methods. Energy & fuels, 26(4):2416-2426, 2012."
2566,guaiacol,COc1ccccc1O,345.1,0.002897711,1.5,0.176091259,1.062980475,0.09,22.52053465,10.328604,18.24595904,20.96691533,12.95632574,31.07563366,"Diego Alonso Saldana, Laurie Starck, Pascal Mougin, Bernard Rousseau, Nicolas Ferrando, and Benoit Creton. Prediction of density and viscosity of biofuel compounds using machine learning methods. Energy & fuels, 26(4):2416-2426, 2012."
2567,guaiacol,COc1ccccc1O,366.4,0.002729258,1.04,0.017033339,1.040314699,0.11,22.68139604,9.852769574,17.75350584,20.30464797,12.48644409,31.32408911,"Diego Alonso Saldana, Laurie Starck, Pascal Mougin, Bernard Rousseau, Nicolas Ferrando, and Benoit Creton. Prediction of density and viscosity of biofuel compounds using machine learning methods. Energy & fuels, 26(4):2416-2426, 2012."
2568,guaiacol,COc1ccccc1O,384.8,0.002598753,0.8,-0.096910013,1.016233287,0.2,22.85313861,9.461678748,17.2673028,19.69001192,12.0839579,31.56172277,"Diego Alonso Saldana, Laurie Starck, Pascal Mougin, Bernard Rousseau, Nicolas Ferrando, and Benoit Creton. Prediction of density and viscosity of biofuel compounds using machine learning methods. Energy & fuels, 26(4):2416-2426, 2012."
2569,guaiacol,COc1ccccc1O,404.1,0.002474635,0.64,-0.193820026,1.00252363,0.34,22.95441584,9.158163276,16.94867146,19.26517853,11.78730184,31.59993069,"Diego Alonso Saldana, Laurie Starck, Pascal Mougin, Bernard Rousseau, Nicolas Ferrando, and Benoit Creton. Prediction of density and viscosity of biofuel compounds using machine learning methods. Energy & fuels, 26(4):2416-2426, 2012."
2570,"1,2-Dimethoxybenzene",COc1ccccc1OC,313.15,0.003193358,2.184,0.339252634,1.057178796,0.02,22.14078218,10.58201984,18.76970561,21.54730686,15.12496309,30.54845545,"A Dean John et al. Lange's handbook of chemistry. In Universitas Of Tennese Knoxville, Fifthenth Edition, Mc. Graw Hill Inc, New York. Conference, 1999."
2571,Dimethyl sulfoxide,CS(C)=O,328.15,0.003047387,1.192,0.076276255,1.078707262,0.04,22.90854455,16.59463193,20.43691474,26.32588358,12.64991905,31.74967327,"A Dean John et al. Lange's handbook of chemistry. In Universitas Of Tennese Knoxville, Fifthenth Edition, Mc. Graw Hill Inc, New York. Conference, 1999."
2572,Dimethyl sulfoxide,CS(C)=O,353.15,0.002831658,0.849,-0.07109231,1.046946124,0.05,23.13963366,16.08642424,19.70440773,25.43697567,12.2428562,32.09131683,"A Dean John et al. Lange's handbook of chemistry. In Universitas Of Tennese Knoxville, Fifthenth Edition, Mc. Graw Hill Inc, New York. Conference, 1999."
2573,methyl sulfide,CSC,273.42,0.003657377,0.3529,-0.452348342,0.874756574,0.09,23.57815842,8.217315566,17.85059554,19.65123595,7.099147762,32.70886139,"WE Wasburn. International critical tables of numerical data, physics, chemistry and technology. 1st electronic edition. Knovel: Norwich, NY, 2003."
2574,methyl sulfide,CSC,278.71,0.003587959,0.3351,-0.474825572,0.858287165,0.11,23.73614851,8.022043906,17.47901119,19.2320583,6.953445064,32.9619604,"WE Wasburn. International critical tables of numerical data, physics, chemistry and technology. 1st electronic edition. Knovel: Norwich, NY, 2003."
2575,methyl sulfide,CSC,283.2,0.003531073,0.3209,-0.493630283,0.860338705,0.13,23.70775248,8.014657249,17.50563767,19.25317836,6.961143276,32.91612871,"WE Wasburn. International critical tables of numerical data, physics, chemistry and technology. 1st electronic edition. Knovel: Norwich, NY, 2003."
2576,methyl sulfide,CSC,287.9,0.003473428,0.3075,-0.51215488,0.851637089,0.15,23.79414851,7.913854916,17.29240759,19.0173689,6.878487101,33.03355446,"WE Wasburn. International critical tables of numerical data, physics, chemistry and technology. 1st electronic edition. Knovel: Norwich, NY, 2003."
2577,Dimethyl sulfide,CSC,293.15,0.003411223,0.289,-0.539102157,0.843787877,0.18,23.85689109,7.812937731,17.10737217,18.80712965,6.807637667,33.08277228,"A Dean John et al. Lange's handbook of chemistry. In Universitas Of Tennese Knoxville, Fifthenth Edition, Mc. Graw Hill Inc, New York. Conference, 1999."
2578,methyl sulfide,CSC,293.34,0.003409013,0.2927,-0.533577278,0.847257833,0.18,23.83284158,7.838858909,17.18321503,18.88687154,6.835194167,33.06979208,"WE Wasburn. International critical tables of numerical data, physics, chemistry and technology. 1st electronic edition. Knovel: Norwich, NY, 2003."
2579,methyl sulfide,CSC,299.29,0.003341241,0.2776,-0.556580538,0.840174077,0.22,23.89359406,7.76685993,17.0083366,18.69790391,6.774199069,33.14134653,"WE Wasburn. International critical tables of numerical data, physics, chemistry and technology. 1st electronic edition. Knovel: Norwich, NY, 2003."
2580,methyl sulfide,CSC,304.5,0.003284072,0.2655,-0.575935475,0.832811663,0.21,23.96866337,7.658933022,16.83282328,18.49342398,6.703583128,33.2670297,"WE Wasburn. International critical tables of numerical data, physics, chemistry and technology. 1st electronic edition. Knovel: Norwich, NY, 2003."
2581,methyl sulfide,CSC,308.96,0.003236665,0.2559,-0.591929714,0.83028509,0.26,23.99578218,7.619647299,16.75554203,18.40683364,6.67385196,33.22777228,"WE Wasburn. International critical tables of numerical data, physics, chemistry and technology. 1st electronic edition. Knovel: Norwich, NY, 2003."
2582,Dimethyl sulfide,CSC,309.15,0.003234676,0.265,-0.576754126,0.829918849,0.21,23.99909901,7.609459025,16.75163674,18.39905409,6.67178549,33.28208911,"A Dean John et al. Lange's handbook of chemistry. In Universitas Of Tennese Knoxville, Fifthenth Edition, Mc. Graw Hill Inc, New York. Conference, 1999."
2583,N-methylthiopyrrolidinone,CSN1CCCC1=O,298.15,0.003354016,4.246195639,0.628,1.150222683,0.0,22.3409505,11.36193805,21.63908103,24.44069939,16.87695827,30.75470297,"Gregory W Kau man and Peter C Jurs. Prediction of surface tension, viscosity, and thermal conductivity for common organic solvents using quantitative structure- property relationships. Journal of chemical information and computer sciences, 41(2):408-418, 2001."
2584,Dimethyl disulfide,CSSC,293.15,0.003411223,0.62,-0.207608311,1.073467425,0.06,24.4210099,11.36563379,18.09125444,21.36524734,10.15608024,33.84234653,"Sunghwan Kim, Paul A Thiessen, Tiejun Cheng, Jian Zhang, Asta Gindulyte, and Evan E Bolton. Pug-view: programmatic access to chemical annotations integrated in pubchem. Journal of cheminformatics, 11(1):1-11, 2019."
2585,alpha-methylbenzyl alcohol,C[C@@H](O)c1ccccc1,293.0,0.003412969,10.9,1.037426498,1.042187635,0.02,21.73267327,15.37000533,18.65485848,24.17137164,16.95119061,28.88384158,"Diego Alonso Saldana, Laurie Starck, Pascal Mougin, Bernard Rousseau, Nicolas Ferrando, and Benoit Creton. Prediction of density and viscosity of biofuel compounds using machine learning methods. Energy & fuels, 26(4):2416-2426, 2012."
2586,alpha-methylbenzyl alcohol,C[C@@H](O)c1ccccc1,298.1,0.003354579,8.49,0.92890769,1.027599385,0.02,21.83721782,15.07474097,18.36380748,23.75914257,16.63225366,29.71972277,"Diego Alonso Saldana, Laurie Starck, Pascal Mougin, Bernard Rousseau, Nicolas Ferrando, and Benoit Creton. Prediction of density and viscosity of biofuel compounds using machine learning methods. Energy & fuels, 26(4):2416-2426, 2012."
2587,alpha-methylbenzyl alcohol,C[C@@H](O)c1ccccc1,313.1,0.003193868,4.84,0.684845362,1.012008377,0.02,21.94430693,14.53326352,18.06510023,23.18579635,16.1326694,30.24333663,"Diego Alonso Saldana, Laurie Starck, Pascal Mougin, Bernard Rousseau, Nicolas Ferrando, and Benoit Creton. Prediction of density and viscosity of biofuel compounds using machine learning methods. Energy & fuels, 26(4):2416-2426, 2012."
2588,alpha-methylbenzyl alcohol,C[C@@H](O)c1ccccc1,323.1,0.003095017,3.4,0.531478917,1.003974127,0.05,22.00967327,14.2237375,17.89299416,22.85806076,15.83778834,30.24689109,"Diego Alonso Saldana, Laurie Starck, Pascal Mougin, Bernard Rousseau, Nicolas Ferrando, and Benoit Creton. Prediction of density and viscosity of biofuel compounds using machine learning methods. Energy & fuels, 26(4):2416-2426, 2012."
2589,alpha-methylbenzyl alcohol,C[C@@H](O)c1ccccc1,333.1,0.003002101,2.49,0.396199347,0.99148215,0.05,22.1019505,13.80346825,17.65861738,22.41381228,15.45682436,30.49077228,"Diego Alonso Saldana, Laurie Starck, Pascal Mougin, Bernard Rousseau, Nicolas Ferrando, and Benoit Creton. Prediction of density and viscosity of biofuel compounds using machine learning methods. Energy & fuels, 26(4):2416-2426, 2012."
2590,alpha-methylbenzyl alcohol,C[C@@H](O)c1ccccc1,353.1,0.002832059,1.55,0.190331698,0.972075909,0.1,22.24731683,13.11978632,17.26497461,21.68477867,14.82631561,30.5759505,"Diego Alonso Saldana, Laurie Starck, Pascal Mougin, Bernard Rousseau, Nicolas Ferrando, and Benoit Creton. Prediction of density and viscosity of biofuel compounds using machine learning methods. Energy & fuels, 26(4):2416-2426, 2012."
2591,alpha-methylbenzyl alcohol,C[C@@H](O)c1ccccc1,363.1,0.002754062,1.23,0.089905111,0.971684455,0.09,22.24848515,12.90964829,17.2480045,21.54459348,14.6696901,30.5899703,"Diego Alonso Saldana, Laurie Starck, Pascal Mougin, Bernard Rousseau, Nicolas Ferrando, and Benoit Creton. Prediction of density and viscosity of biofuel compounds using machine learning methods. Energy & fuels, 26(4):2416-2426, 2012."
2592,"cis-1,2-dimethylcyclohexane",C[C@@H]1CCCC[C@@H]1C,273.1,0.003661662,1.62,0.209515015,0.807424601,0.08,21.27821782,0.614979398,16.38545667,16.3970136,9.473470801,29.17742574,"Diego Alonso Saldana, Laurie Starck, Pascal Mougin, Bernard Rousseau, Nicolas Ferrando, and Benoit Creton. Prediction of density and viscosity of biofuel compounds using machine learning methods. Energy & fuels, 26(4):2416-2426, 2012."
2593,"cis-1,2-dimethylcyclohexane",C[C@@H]1CCCC[C@@H]1C,288.1,0.003471017,1.19,0.075546961,0.79675099,0.19,21.37724752,0.602452086,16.07785129,16.08916137,9.286269501,29.20311881,"Diego Alonso Saldana, Laurie Starck, Pascal Mougin, Bernard Rousseau, Nicolas Ferrando, and Benoit Creton. Prediction of density and viscosity of biofuel compounds using machine learning methods. Energy & fuels, 26(4):2416-2426, 2012."
2594,"cis-1,2-dimethylcyclohexane",C[C@@H]1CCCC[C@@H]1C,293.1,0.003411805,1.11,0.045322979,0.783458799,0.13,21.49724752,0.583009959,15.73568388,15.74650528,9.070624666,29.48765347,"Diego Alonso Saldana, Laurie Starck, Pascal Mougin, Bernard Rousseau, Nicolas Ferrando, and Benoit Creton. Prediction of density and viscosity of biofuel compounds using machine learning methods. Energy & fuels, 26(4):2416-2426, 2012."
2595,"cis-1,2-dimethylcyclohexane",C[C@@H]1CCCC[C@@H]1C,303.1,0.003299241,0.93,-0.031517051,0.780068522,0.22,21.53083168,0.580901835,15.62825146,15.63907743,9.011463591,29.56914851,"Diego Alonso Saldana, Laurie Starck, Pascal Mougin, Bernard Rousseau, Nicolas Ferrando, and Benoit Creton. Prediction of density and viscosity of biofuel compounds using machine learning methods. Energy & fuels, 26(4):2416-2426, 2012."
2596,"cis-1,2-dimethylcyclohexane",C[C@@H]1CCCC[C@@H]1C,313.1,0.003193868,0.82,-0.086186148,0.769482425,0.23,21.62027723,0.571311173,15.34037248,15.35104062,8.835885677,29.6220297,"Diego Alonso Saldana, Laurie Starck, Pascal Mougin, Bernard Rousseau, Nicolas Ferrando, and Benoit Creton. Prediction of density and viscosity of biofuel compounds using machine learning methods. Energy & fuels, 26(4):2416-2426, 2012."
2597,"trans-1,2-dimethylcyclohexane",C[C@@H]1CCCC[C@H]1C,273.1,0.003661662,1.11,0.045322979,0.798449991,0.09,21.3640099,0.651977315,16.24152099,16.25462773,9.417685501,29.27164356,"Diego Alonso Saldana, Laurie Starck, Pascal Mougin, Bernard Rousseau, Nicolas Ferrando, and Benoit Creton. Prediction of density and viscosity of biofuel compounds using machine learning methods. Energy & fuels, 26(4):2416-2426, 2012."
2598,"trans-1,2-dimethylcyclohexane",C[C@@H]1CCCC[C@H]1C,293.1,0.003411805,0.82,-0.086186148,0.781348749,0.15,21.51065347,0.628310848,15.76336369,15.77590841,9.125344175,29.52771287,"Diego Alonso Saldana, Laurie Starck, Pascal Mougin, Bernard Rousseau, Nicolas Ferrando, and Benoit Creton. Prediction of density and viscosity of biofuel compounds using machine learning methods. Energy & fuels, 26(4):2416-2426, 2012."
2599,"trans-1,2-dimethylcyclohexane",C[C@@H]1CCCC[C@H]1C,313.1,0.003193868,0.63,-0.200659451,0.763740287,0.28,21.67749505,0.602327425,15.28947413,15.30137175,8.844183404,29.76768317,"Diego Alonso Saldana, Laurie Starck, Pascal Mougin, Bernard Rousseau, Nicolas Ferrando, and Benoit Creton. Prediction of density and viscosity of biofuel compounds using machine learning methods. Energy & fuels, 26(4):2416-2426, 2012."
2600,trans-2-methylcyclohexanol,C[C@@H]1CCCC[C@H]1O,303.1,0.003299241,25.14,1.400365273,0.914717216,0.07,21.1269505,13.65801498,16.78422325,21.63961795,14.57389593,28.32621782,"Diego Alonso Saldana, Laurie Starck, Pascal Mougin, Bernard Rousseau, Nicolas Ferrando, and Benoit Creton. Prediction of density and viscosity of biofuel compounds using machine learning methods. Energy & fuels, 26(4):2416-2426, 2012."
2601,trans-2-Methylcyclohexanol,C[C@@H]1CCCC[C@H]1O,303.15,0.003298697,25.14,1.400365273,0.916274448,0.05,21.11630693,13.67951515,16.82516863,21.68476238,14.60843313,27.97649505,"A Dean John et al. Lange's handbook of chemistry. In Universitas Of Tennese Knoxville, Fifthenth Edition, Mc. Graw Hill Inc, New York. Conference, 1999."
2602,"trans-1,3-dimethylcyclohexane",C[C@@H]1CCC[C@@H](C)C1,273.1,0.003661662,0.83,-0.080921908,0.803729049,0.14,21.30925743,0.64434668,16.42876273,16.44142519,9.563206992,29.26088119,"Diego Alonso Saldana, Laurie Starck, Pascal Mougin, Bernard Rousseau, Nicolas Ferrando, and Benoit Creton. Prediction of density and viscosity of biofuel compounds using machine learning methods. Energy & fuels, 26(4):2416-2426, 2012."