Index,Name,CANON_SMILES,Temperature (K),Inverse temperature (1/K),Viscosity (cP),log(Viscosity),MD_density,MD_FV,MD_Rg,MD_SP_E,MD_SP_V,MD_SP,MD_HV,MD_RMSD,Reference
220,diisopropenyl,C=C(C)C(=C)C,309.21,0.003234048,0.2355,-0.628009089,0.719824934,0.35,22.79714851,2.604624924,15.29989476,15.52028883,7.184490152,31.55271287,"WE Wasburn. International critical tables of numerical data, physics, chemistry and technology. 1st electronic edition. Knovel: Norwich, NY, 2003."
221,"2,3-Dimethyl-1-1,3-butadiene",C=C(C)C(=C)C,313.15,0.003193358,0.22,-0.657577319,0.711672654,0.47,22.87977228,2.549371096,15.08805082,15.3022694,7.082194992,31.64169307,"Dabir S Viswanath, Tushar K Ghosh, Dasika HL Prasad, Nidamarty VK Dutt, Kalipatnapu Y Rani, Dabir S Viswanath, Tushar K Ghosh, Dasika HL Prasad, Nidamarty VK Dutt, and Kalipatnapu Y Rani. Correlations and estimation of pure liquid viscosity.Viscosity of Liquids: Theory, Estimation, Experiment, and Data, pages 135-405, 2007."
222,diisopropenyl,C=C(C)C(=C)C,315.14,0.003173193,0.2229,-0.651889932,0.712952198,0.38,22.86625743,2.545403838,15.11312156,15.32625338,7.094781576,31.61108911,"WE Wasburn. International critical tables of numerical data, physics, chemistry and technology. 1st electronic edition. Knovel: Norwich, NY, 2003."
223,diisopropenyl,C=C(C)C(=C)C,319.91,0.003125879,0.2137,-0.670195478,0.703206701,0.48,22.97855446,2.480139186,14.86779364,15.07353212,6.97941735,31.6440198,"WE Wasburn. International critical tables of numerical data, physics, chemistry and technology. 1st electronic edition. Knovel: Norwich, NY, 2003."
224,diisopropenyl,C=C(C)C(=C)C,324.69,0.003079861,0.2047,-0.688882157,0.699835118,0.73,23.01532673,2.453673,14.78019632,14.9827553,6.942927826,31.74221782,"WE Wasburn. International critical tables of numerical data, physics, chemistry and technology. 1st electronic edition. Knovel: Norwich, NY, 2003."
225,diisopropenyl,C=C(C)C(=C)C,329.35,0.003036284,0.1966,-0.706416487,0.691884338,0.64,23.10160396,2.387830719,14.57454322,14.76914011,6.844214286,31.85719802,"WE Wasburn. International critical tables of numerical data, physics, chemistry and technology. 1st electronic edition. Knovel: Norwich, NY, 2003."
226,Methacrylic acid,C=C(C)C(=O)O,293.15,0.003411223,1.32,0.120573931,1.073362905,0.01,22.31013861,20.36006754,19.25756467,28.02499954,15.63844116,30.60148515,"A Dean John et al. Lange's handbook of chemistry. In Universitas Of Tennese Knoxville, Fifthenth Edition, Mc. Graw Hill Inc, New York. Conference, 1999."
227,Methyl methacrylate,C=C(C)C(=O)OC,293.15,0.003411223,0.632,-0.199282922,0.982901638,0.03,22.43272277,9.468188353,18.82025731,21.06785336,11.3881099,31.03811881,"A Dean John et al. Lange's handbook of chemistry. In Universitas Of Tennese Knoxville, Fifthenth Edition, Mc. Graw Hill Inc, New York. Conference, 1999."
228,Cyclohexyl methacrylate,C=C(C)C(=O)OC1CCCCC1,298.15,0.003354016,5.0,0.698970004,0.980586729,0.03,21.67312871,6.029196584,18.44213396,19.40283644,16.02980197,29.77493069,"Sunghwan Kim, Paul A Thiessen, Tiejun Cheng, Jian Zhang, Asta Gindulyte, and Evan E Bolton. Pug-view: programmatic access to chemical annotations integrated in pubchem. Journal of cheminformatics, 11(1):1-11, 2019."
229,isobutyl methacrylate,C=C(C)C(=O)OCC(C)C,293.1,0.003411805,1.0,0.0,0.916546368,0.04,22.06940594,6.600353788,17.64250299,18.83690929,13.73975067,30.42121782,"Diego Alonso Saldana, Laurie Starck, Pascal Mougin, Bernard Rousseau, Nicolas Ferrando, and Benoit Creton. Prediction of density and viscosity of biofuel compounds using machine learning methods. Energy & fuels, 26(4):2416-2426, 2012."
230,isobutyl methacrylate,C=C(C)C(=O)OCC(C)C,298.1,0.003354579,0.92,-0.036212173,0.914464947,0.05,22.09343564,6.563632013,17.57179777,18.75773535,13.66902122,30.48945545,"Diego Alonso Saldana, Laurie Starck, Pascal Mougin, Bernard Rousseau, Nicolas Ferrando, and Benoit Creton. Prediction of density and viscosity of biofuel compounds using machine learning methods. Energy & fuels, 26(4):2416-2426, 2012."
231,Glycidyl methacrylate,C=C(C)C(=O)OCC1CO1,294.2611111,0.003398342,5.481,0.738859802,1.062585396,0.03,22.30622772,10.11098378,19.1587038,21.66321255,15.59027447,30.83644554,"Sunghwan Kim, Paul A Thiessen, Tiejun Cheng, Jian Zhang, Asta Gindulyte, and Evan E Bolton. Pug-view: programmatic access to chemical annotations integrated in pubchem. Journal of cheminformatics, 11(1):1-11, 2019."
232,n-butyl methacrylate,C=C(C)C(=O)OCCCC,277.1,0.003608805,1.36,0.133538908,0.937349361,0.01,21.91114851,6.899541282,18.36784287,19.62109309,14.50940321,30.24036634,"Diego Alonso Saldana, Laurie Starck, Pascal Mougin, Bernard Rousseau, Nicolas Ferrando, and Benoit Creton. Prediction of density and viscosity of biofuel compounds using machine learning methods. Energy & fuels, 26(4):2416-2426, 2012."
233,n-butyl methacrylate,C=C(C)C(=O)OCCCC,288.1,0.003471017,1.08,0.033423755,0.926159232,0.03,21.99321782,6.75052546,18.06895643,19.28889948,14.22564083,30.27265347,"Diego Alonso Saldana, Laurie Starck, Pascal Mougin, Bernard Rousseau, Nicolas Ferrando, and Benoit Creton. Prediction of density and viscosity of biofuel compounds using machine learning methods. Energy & fuels, 26(4):2416-2426, 2012."
234,n-butyl methacrylate,C=C(C)C(=O)OCCCC,293.1,0.003411805,1.09,0.037426498,0.918266737,0.04,22.06014851,6.671527231,17.87760573,19.08202057,14.05910901,30.38143564,"Diego Alonso Saldana, Laurie Starck, Pascal Mougin, Bernard Rousseau, Nicolas Ferrando, and Benoit Creton. Prediction of density and viscosity of biofuel compounds using machine learning methods. Energy & fuels, 26(4):2416-2426, 2012."
235,n-butyl methacrylate,C=C(C)C(=O)OCCCC,298.1,0.003354579,0.92,-0.036212173,0.915168565,0.03,22.08983168,6.608267772,17.78888868,18.97687256,13.96604544,30.40646535,"Diego Alonso Saldana, Laurie Starck, Pascal Mougin, Bernard Rousseau, Nicolas Ferrando, and Benoit Creton. Prediction of density and viscosity of biofuel compounds using machine learning methods. Energy & fuels, 26(4):2416-2426, 2012."
236,n-butyl methacrylate,C=C(C)C(=O)OCCCC,308.1,0.003245699,0.79,-0.102372909,0.908409322,0.05,22.13261386,6.532678459,17.60007106,18.77349786,13.7982335,30.55755446,"Diego Alonso Saldana, Laurie Starck, Pascal Mougin, Bernard Rousseau, Nicolas Ferrando, and Benoit Creton. Prediction of density and viscosity of biofuel compounds using machine learning methods. Energy & fuels, 26(4):2416-2426, 2012."
237,n-butyl methacrylate,C=C(C)C(=O)OCCCC,323.1,0.003095017,0.65,-0.187086643,0.878525203,0.17,22.38668317,6.237997005,16.88699227,18.00251962,13.17968853,30.82870297,"Diego Alonso Saldana, Laurie Starck, Pascal Mougin, Bernard Rousseau, Nicolas Ferrando, and Benoit Creton. Prediction of density and viscosity of biofuel compounds using machine learning methods. Energy & fuels, 26(4):2416-2426, 2012."
238,n-butyl methacrylate,C=C(C)C(=O)OCCCC,333.1,0.003002101,0.55,-0.259637311,0.877803041,0.19,22.3899901,6.197345882,16.84127458,17.94549157,13.13049258,30.85943564,"Diego Alonso Saldana, Laurie Starck, Pascal Mougin, Bernard Rousseau, Nicolas Ferrando, and Benoit Creton. Prediction of density and viscosity of biofuel compounds using machine learning methods. Energy & fuels, 26(4):2416-2426, 2012."
239,"N,n-dimethylaminoethyl methacrylate",C=C(C)C(=O)OCCN(C)C,298.15,0.003354016,1.34,0.127104798,0.966085518,0.06,21.82861386,8.624259079,17.73457372,19.72056843,15.71834699,30.00565347,"Sunghwan Kim, Paul A Thiessen, Tiejun Cheng, Jian Zhang, Asta Gindulyte, and Evan E Bolton. Pug-view: programmatic access to chemical annotations integrated in pubchem. Journal of cheminformatics, 11(1):1-11, 2019."
240,d-carvol,C=C(C)C1CC=C(C)C(=O)C1,298.15,0.003354016,3.39,0.530199698,0.963949551,0.02,21.7900198,7.031988502,18.63702267,19.91965884,15.37158086,29.8649901,"WE Wasburn. International critical tables of numerical data, physics, chemistry and technology. 1st electronic edition. Knovel: Norwich, NY, 2003."
241,Methacrolein,C=C(C)C=O,293.15,0.003411223,0.49,-0.30980392,0.869827758,0.06,23.01165347,12.9749819,18.25781189,22.39868335,10.24488203,31.86906931,"Sunghwan Kim, Paul A Thiessen, Tiejun Cheng, Jian Zhang, Asta Gindulyte, and Evan E Bolton. Pug-view: programmatic access to chemical annotations integrated in pubchem. Journal of cheminformatics, 11(1):1-11, 2019."
242,Alpha-methyl styrene,C=C(C)c1ccccc1,293.15,0.003411223,0.94,-0.026872146,0.922013815,0.05,22.39059406,5.762330845,17.98893667,18.88951317,11.51334126,30.96039604,"Sunghwan Kim, Paul A Thiessen, Tiejun Cheng, Jian Zhang, Asta Gindulyte, and Evan E Bolton. Pug-view: programmatic access to chemical annotations integrated in pubchem. Journal of cheminformatics, 11(1):1-11, 2019."
243,Beta-pinene,C=C1CCC2CC1C2(C)C,298.15,0.003354016,1.522,0.182414652,0.86679326,0.07,21.58394059,1.305645669,16.3896563,16.4417478,10.74762535,29.6129901,"Sunghwan Kim, Paul A Thiessen, Tiejun Cheng, Jian Zhang, Asta Gindulyte, and Evan E Bolton. Pug-view: programmatic access to chemical annotations integrated in pubchem. Journal of cheminformatics, 11(1):1-11, 2019."
244,propadiene,C=C=C,298.1,0.003354579,0.14,-0.853871964,0.586759255,1.13,25.29488119,2.431993391,14.83214759,15.03042998,4.279232525,35.16260396,"Diego Alonso Saldana, Laurie Starck, Pascal Mougin, Bernard Rousseau, Nicolas Ferrando, and Benoit Creton. Prediction of density and viscosity of biofuel compounds using machine learning methods. Energy & fuels, 26(4):2416-2426, 2012."
245,acrylonitrile,C=CC#N,298.15,0.003354016,0.338844156,-0.47,0.794702328,0.2,25.11338614,15.41791254,15.66992903,21.98320577,8.304724739,34.8789604,"Gregory W Kau man and Peter C Jurs. Prediction of surface tension, viscosity, and thermal conductivity for common organic solvents using quantitative structure- property relationships. Journal of chemical information and computer sciences, 41(2):408-418, 2001."
246,isoprene,C=CC(=C)C,273.1,0.003661662,0.26,-0.585026652,0.713941891,0.31,23.02127723,3.123500996,15.65048183,15.9593778,6.350937238,31.86211881,"Diego Alonso Saldana, Laurie Starck, Pascal Mougin, Bernard Rousseau, Nicolas Ferrando, and Benoit Creton. Prediction of density and viscosity of biofuel compounds using machine learning methods. Energy & fuels, 26(4):2416-2426, 2012."
247,isoprene,C=CC(=C)C,278.1,0.003595829,0.25,-0.602059991,0.701550531,0.34,23.15640594,3.041198681,15.33123131,15.63018382,6.222144477,32.00539604,"Diego Alonso Saldana, Laurie Starck, Pascal Mougin, Bernard Rousseau, Nicolas Ferrando, and Benoit Creton. Prediction of density and viscosity of biofuel compounds using machine learning methods. Energy & fuels, 26(4):2416-2426, 2012."
248,isoprene,C=CC(=C)C,278.77,0.003587187,0.2459,-0.609241471,0.709659465,0.28,23.06675248,3.074297393,15.53050716,15.83208379,6.304411047,31.8639604,"WE Wasburn. International critical tables of numerical data, physics, chemistry and technology. 1st electronic edition. Knovel: Norwich, NY, 2003."
249,isoprene,C=CC(=C)C,278.8,0.003586801,0.25,-0.602059991,0.705521078,0.32,23.11822772,3.020518849,15.42563822,15.71887645,6.255781613,31.96645545,"Diego Alonso Saldana, Laurie Starck, Pascal Mougin, Bernard Rousseau, Nicolas Ferrando, and Benoit Creton. Prediction of density and viscosity of biofuel compounds using machine learning methods. Energy & fuels, 26(4):2416-2426, 2012."
250,isoprene,C=CC(=C)C,283.1,0.003532321,0.24,-0.619788758,0.702202782,0.41,23.15166337,3.007067344,15.33456966,15.62683875,6.22439221,32.04275248,"Diego Alonso Saldana, Laurie Starck, Pascal Mougin, Bernard Rousseau, Nicolas Ferrando, and Benoit Creton. Prediction of density and viscosity of biofuel compounds using machine learning methods. Energy & fuels, 26(4):2416-2426, 2012."
251,isoprene,C=CC(=C)C,283.42,0.003528333,0.2358,-0.627456199,0.702697017,0.32,23.14153465,3.014728314,15.34822379,15.64168707,6.231800826,31.96318812,"WE Wasburn. International critical tables of numerical data, physics, chemistry and technology. 1st electronic edition. Knovel: Norwich, NY, 2003."
252,isoprene,C=CC(=C)C,283.5,0.003527337,0.24,-0.619788758,0.713427687,0.29,23.01889109,3.091144706,15.59829107,15.90192873,6.334024832,31.82983168,"Diego Alonso Saldana, Laurie Starck, Pascal Mougin, Bernard Rousseau, Nicolas Ferrando, and Benoit Creton. Prediction of density and viscosity of biofuel compounds using machine learning methods. Energy & fuels, 26(4):2416-2426, 2012."
253,isoprene,C=CC(=C)C,288.1,0.003471017,0.23,-0.638272164,0.692271921,0.38,23.25294059,2.924684498,15.08218309,15.36337518,6.123525036,32.17056436,"Diego Alonso Saldana, Laurie Starck, Pascal Mougin, Bernard Rousseau, Nicolas Ferrando, and Benoit Creton. Prediction of density and viscosity of biofuel compounds using machine learning methods. Energy & fuels, 26(4):2416-2426, 2012."
254,isoprene,C=CC(=C)C,288.48,0.003466445,0.2249,-0.648010545,0.698888013,0.43,23.19120792,2.9824007,15.2339218,15.52330067,6.186796453,32.04020792,"WE Wasburn. International critical tables of numerical data, physics, chemistry and technology. 1st electronic edition. Knovel: Norwich, NY, 2003."
255,isoprene,C=CC(=C)C,288.5,0.003466205,0.23,-0.638272164,0.693096889,0.42,23.25287129,2.940066693,15.10255281,15.38623331,6.134231173,32.17792079,"Diego Alonso Saldana, Laurie Starck, Pascal Mougin, Bernard Rousseau, Nicolas Ferrando, and Benoit Creton. Prediction of density and viscosity of biofuel compounds using machine learning methods. Energy & fuels, 26(4):2416-2426, 2012."
256,isoprene,C=CC(=C)C,293.1,0.003411805,0.22,-0.657577319,0.693195331,0.45,23.25215842,2.928175555,15.08885757,15.37055613,6.131249622,32.1190099,"Diego Alonso Saldana, Laurie Starck, Pascal Mougin, Bernard Rousseau, Nicolas Ferrando, and Benoit Creton. Prediction of density and viscosity of biofuel compounds using machine learning methods. Energy & fuels, 26(4):2416-2426, 2012."
257,isoprene,C=CC(=C)C,293.5,0.003407155,0.22,-0.657577319,0.693093649,0.39,23.24273267,2.909279217,15.08543006,15.36366195,6.127882501,32.17914851,"Diego Alonso Saldana, Laurie Starck, Pascal Mougin, Bernard Rousseau, Nicolas Ferrando, and Benoit Creton. Prediction of density and viscosity of biofuel compounds using machine learning methods. Energy & fuels, 26(4):2416-2426, 2012."
258,isoprene,C=CC(=C)C,293.56,0.003406459,0.2147,-0.668167956,0.691077363,0.55,23.27115842,2.91660569,15.03441882,15.31503615,6.109031663,32.13216832,"WE Wasburn. International critical tables of numerical data, physics, chemistry and technology. 1st electronic edition. Knovel: Norwich, NY, 2003."
259,isoprene,C=CC(=C)C,298.1,0.003354579,0.21,-0.677780705,0.684518745,0.52,23.34219802,2.840404137,14.86146147,15.13069253,6.037514791,32.27939604,"Diego Alonso Saldana, Laurie Starck, Pascal Mougin, Bernard Rousseau, Nicolas Ferrando, and Benoit Creton. Prediction of density and viscosity of biofuel compounds using machine learning methods. Energy & fuels, 26(4):2416-2426, 2012."
260,isoprene,C=CC(=C)C,298.4,0.003351206,0.206,-0.68613278,0.685745134,0.4,23.34051485,2.85888594,14.88878888,15.1610136,6.050177232,32.22864356,"WE Wasburn. International critical tables of numerical data, physics, chemistry and technology. 1st electronic edition. Knovel: Norwich, NY, 2003."
261,isoprene,C=CC(=C)C,298.5,0.003350084,0.21,-0.677780705,0.682831197,0.45,23.36078218,2.835472964,14.81838705,15.08744168,6.020601164,32.23117822,"Diego Alonso Saldana, Laurie Starck, Pascal Mougin, Bernard Rousseau, Nicolas Ferrando, and Benoit Creton. Prediction of density and viscosity of biofuel compounds using machine learning methods. Energy & fuels, 26(4):2416-2426, 2012."
262,isoprene,C=CC(=C)C,302.0,0.003311258,0.2,-0.698970004,0.681796133,0.65,23.37767327,2.814710937,14.78170515,15.04761152,6.007137283,32.36243564,"Diego Alonso Saldana, Laurie Starck, Pascal Mougin, Bernard Rousseau, Nicolas Ferrando, and Benoit Creton. Prediction of density and viscosity of biofuel compounds using machine learning methods. Energy & fuels, 26(4):2416-2426, 2012."
263,isoprene,C=CC(=C)C,302.09,0.003310272,0.1996,-0.699839463,0.679716142,0.54,23.39993069,2.812138467,14.73189176,14.99816346,5.988273299,32.29342574,"WE Wasburn. International critical tables of numerical data, physics, chemistry and technology. 1st electronic edition. Knovel: Norwich, NY, 2003."
264,isoprene,C=CC(=C)C,303.0,0.00330033,0.2,-0.698970004,0.681743068,0.52,23.37926733,2.806106525,14.78038449,15.04463827,6.007411066,32.32634653,"Diego Alonso Saldana, Laurie Starck, Pascal Mougin, Bernard Rousseau, Nicolas Ferrando, and Benoit Creton. Prediction of density and viscosity of biofuel compounds using machine learning methods. Energy & fuels, 26(4):2416-2426, 2012."
265,isoprene,C=CC(=C)C,303.08,0.003299459,0.1985,-0.702239489,0.678659498,0.55,23.40984158,2.796839562,14.71631666,14.97999273,5.985562218,32.35979208,"WE Wasburn. International critical tables of numerical data, physics, chemistry and technology. 1st electronic edition. Knovel: Norwich, NY, 2003."
266,isoprene,C=CC(=C)C,303.1,0.003299241,0.2,-0.698970004,0.679930925,0.48,23.39349505,2.803354987,14.73906435,15.00352336,5.992431283,32.32393069,"Diego Alonso Saldana, Laurie Starck, Pascal Mougin, Bernard Rousseau, Nicolas Ferrando, and Benoit Creton. Prediction of density and viscosity of biofuel compounds using machine learning methods. Energy & fuels, 26(4):2416-2426, 2012."
267,isoprene,C=CC(=C)C,305.1,0.003277614,0.19,-0.721246399,0.677187445,0.61,23.42113861,2.791528222,14.66464731,14.92824236,5.964068864,32.49906931,"Diego Alonso Saldana, Laurie Starck, Pascal Mougin, Bernard Rousseau, Nicolas Ferrando, and Benoit Creton. Prediction of density and viscosity of biofuel compounds using machine learning methods. Energy & fuels, 26(4):2416-2426, 2012."
268,isoprene,C=CC(=C)C,305.17,0.003276862,0.1944,-0.711303739,0.672625451,0.76,23.48066337,2.759882222,14.56117933,14.82065649,5.923075587,32.49490099,"WE Wasburn. International critical tables of numerical data, physics, chemistry and technology. 1st electronic edition. Knovel: Norwich, NY, 2003."
269,acrylic acid,C=CC(=O)O,298.15,0.003354016,1.2,0.079181246,1.119899278,0.02,22.81708911,23.59088114,19.55974101,30.64511088,15.03575233,31.66412871,"Valentin Goussard, Francois Duprat, Jean-Luc Ploix, G erard Dreyfus, Veronique Nardello-Rataj, and Jean-Marie Aubry. A new machine-learning tool for fast estimation of liquid viscosity. application to cosmetic oils. Journal of Chemical Information and Modeling, 60(4):2012-2023, 2020."
270,methyl acrylate,C=CC(=O)OC,273.0,0.003663004,0.63,-0.200659451,1.022848759,0.01,22.66930693,11.30729804,19.65505134,22.67551628,10.88594449,31.38193069,"Diego Alonso Saldana, Laurie Starck, Pascal Mougin, Bernard Rousseau, Nicolas Ferrando, and Benoit Creton. Prediction of density and viscosity of biofuel compounds using machine learning methods. Energy & fuels, 26(4):2416-2426, 2012."
271,Methyl acrylate,C=CC(=O)OC,288.7055556,0.003463737,0.517,-0.286509457,1.011555648,0.02,22.7579505,11.11340854,19.35718191,22.32064909,10.7078287,31.48286139,"Sunghwan Kim, Paul A Thiessen, Tiejun Cheng, Jian Zhang, Asta Gindulyte, and Evan E Bolton. Pug-view: programmatic access to chemical annotations integrated in pubchem. Journal of cheminformatics, 11(1):1-11, 2019."
272,methyl acrylate,C=CC(=O)OC,298.15,0.003354016,0.45,-0.346787486,0.994429656,0.06,22.88683168,10.88541331,18.9754608,21.87609502,10.49458745,31.70074257,"Valentin Goussard, Francois Duprat, Jean-Luc Ploix, G erard Dreyfus, Veronique Nardello-Rataj, and Jean-Marie Aubry. A new machine-learning tool for fast estimation of liquid viscosity. application to cosmetic oils. Journal of Chemical Information and Modeling, 60(4):2012-2023, 2020."