Index,Name,CANON_SMILES,Temperature (K),Inverse temperature (1/K),Viscosity (cP),log(Viscosity),MD_density,MD_FV,MD_Rg,MD_SP_E,MD_SP_V,MD_SP,MD_HV,MD_RMSD,Reference
2219,ethyl benzoate,CCOC(=O)c1ccccc1,323.15,0.003094538,1.28,0.10720997,1.029787926,0.07,22.59452475,7.062616527,18.80878111,20.09121966,14.7116054,31.30137624,"WE Wasburn. International critical tables of numerical data, physics, chemistry and technology. 1st electronic edition. Knovel: Norwich, NY, 2003."
2220,ethyl benzoate,CCOC(=O)c1ccccc1,343.1,0.002914602,0.95,-0.022276395,1.016561645,0.07,22.69291089,6.844846704,18.46602774,19.69397482,14.37629939,31.29994059,"Diego Alonso Saldana, Laurie Starck, Pascal Mougin, Bernard Rousseau, Nicolas Ferrando, and Benoit Creton. Prediction of density and viscosity of biofuel compounds using machine learning methods. Energy & fuels, 26(4):2416-2426, 2012."
2221,ethyl benzoate,CCOC(=O)c1ccccc1,343.15,0.002914177,0.95,-0.022276395,1.016224879,0.08,22.69422772,6.843488779,18.46809856,19.69546675,14.38299879,31.43864356,"WE Wasburn. International critical tables of numerical data, physics, chemistry and technology. 1st electronic edition. Knovel: Norwich, NY, 2003."
2222,diethyl phthalate,CCOC(=O)c1ccccc1C(=O)OCC,277.1,0.003608805,25.9,1.413299764,1.15265843,0.01,22.02179208,8.679356947,20.18000697,21.96745475,22.78836168,26.35793069,"Diego Alonso Saldana, Laurie Starck, Pascal Mougin, Bernard Rousseau, Nicolas Ferrando, and Benoit Creton. Prediction of density and viscosity of biofuel compounds using machine learning methods. Energy & fuels, 26(4):2416-2426, 2012."
2223,diethyl phthalate,CCOC(=O)c1ccccc1C(=O)OCC,293.1,0.003411805,12.76,1.105850674,1.137887603,0.01,22.12254455,8.357224445,19.80588591,21.49699608,22.15430304,26.80733663,"Diego Alonso Saldana, Laurie Starck, Pascal Mougin, Bernard Rousseau, Nicolas Ferrando, and Benoit Creton. Prediction of density and viscosity of biofuel compounds using machine learning methods. Energy & fuels, 26(4):2416-2426, 2012."
2224,diethyl phthalate,CCOC(=O)c1ccccc1C(=O)OCC,298.1,0.003354579,10.21,1.009025742,1.135282559,0.01,22.13411881,8.362050265,19.74240558,21.4404204,22.10008455,26.89525743,"Diego Alonso Saldana, Laurie Starck, Pascal Mougin, Bernard Rousseau, Nicolas Ferrando, and Benoit Creton. Prediction of density and viscosity of biofuel compounds using machine learning methods. Energy & fuels, 26(4):2416-2426, 2012."
2225,diethyl phthalate,CCOC(=O)c1ccccc1C(=O)OCC,303.1,0.003299241,9.01,0.954724791,1.130268374,0.01,22.17214851,8.31649101,19.6159475,21.30620754,21.93581274,26.92651485,"Diego Alonso Saldana, Laurie Starck, Pascal Mougin, Bernard Rousseau, Nicolas Ferrando, and Benoit Creton. Prediction of density and viscosity of biofuel compounds using machine learning methods. Energy & fuels, 26(4):2416-2426, 2012."
2226,diethyl phthalate,CCOC(=O)c1ccccc1C(=O)OCC,308.1,0.003245699,7.63,0.882524538,1.131542082,0.02,22.16005941,8.315155301,19.6301019,21.31875432,21.94683904,26.89875248,"Diego Alonso Saldana, Laurie Starck, Pascal Mougin, Bernard Rousseau, Nicolas Ferrando, and Benoit Creton. Prediction of density and viscosity of biofuel compounds using machine learning methods. Energy & fuels, 26(4):2416-2426, 2012."
2227,diethyl phthalate,CCOC(=O)c1ccccc1C(=O)OCC,310.1,0.003224766,7.31,0.863917377,1.122861878,0.02,22.22329703,8.214315864,19.4506845,21.11421184,21.70519542,27.29434653,"Diego Alonso Saldana, Laurie Starck, Pascal Mougin, Bernard Rousseau, Nicolas Ferrando, and Benoit Creton. Prediction of density and viscosity of biofuel compounds using machine learning methods. Energy & fuels, 26(4):2416-2426, 2012."
2228,diethyl phthalate,CCOC(=O)c1ccccc1C(=O)OCC,313.1,0.003193868,6.43,0.808210973,1.124667067,0.01,22.20256436,8.232013421,19.4776016,21.14595669,21.74068488,27.40759406,"Diego Alonso Saldana, Laurie Starck, Pascal Mougin, Bernard Rousseau, Nicolas Ferrando, and Benoit Creton. Prediction of density and viscosity of biofuel compounds using machine learning methods. Energy & fuels, 26(4):2416-2426, 2012."
2229,diethyl phthalate,CCOC(=O)c1ccccc1C(=O)OCC,318.1,0.003143666,5.57,0.745855195,1.116067636,0.02,22.26577228,8.106452095,19.29125451,20.9254266,21.47176364,28.21128713,"Diego Alonso Saldana, Laurie Starck, Pascal Mougin, Bernard Rousseau, Nicolas Ferrando, and Benoit Creton. Prediction of density and viscosity of biofuel compounds using machine learning methods. Energy & fuels, 26(4):2416-2426, 2012."
2230,diethyl phthalate,CCOC(=O)c1ccccc1C(=O)OCC,323.1,0.003095017,4.72,0.673941999,1.109984199,0.01,22.30423762,8.046066602,19.15102742,20.77275072,21.2912507,28.99056436,"Diego Alonso Saldana, Laurie Starck, Pascal Mougin, Bernard Rousseau, Nicolas Ferrando, and Benoit Creton. Prediction of density and viscosity of biofuel compounds using machine learning methods. Energy & fuels, 26(4):2416-2426, 2012."
2231,diethyl phthalate,CCOC(=O)c1ccccc1C(=O)OCC,328.15,0.003047387,4.182,0.621384029,1.115925376,0.02,22.26269307,8.099248552,19.2413773,20.87667545,21.39738559,28.40258416,"WE Wasburn. International critical tables of numerical data, physics, chemistry and technology. 1st electronic edition. Knovel: Norwich, NY, 2003."
2232,diethyl phthalate,CCOC(=O)c1ccccc1C(=O)OCC,333.1,0.003002101,3.78,0.5774918,1.108902548,0.02,22.31169307,8.017369898,19.09362925,20.70868519,21.20394966,29.29543564,"Diego Alonso Saldana, Laurie Starck, Pascal Mougin, Bernard Rousseau, Nicolas Ferrando, and Benoit Creton. Prediction of density and viscosity of biofuel compounds using machine learning methods. Energy & fuels, 26(4):2416-2426, 2012."
2233,diethyl phthalate,CCOC(=O)c1ccccc1C(=O)OCC,343.1,0.002914602,2.99,0.475671188,1.096840116,0.02,22.3880198,7.863402484,18.8202377,20.39708841,20.82948055,30.46109901,"Diego Alonso Saldana, Laurie Starck, Pascal Mougin, Bernard Rousseau, Nicolas Ferrando, and Benoit Creton. Prediction of density and viscosity of biofuel compounds using machine learning methods. Energy & fuels, 26(4):2416-2426, 2012."
2234,diethyl phthalate,CCOC(=O)c1ccccc1C(=O)OCC,353.1,0.002832059,2.43,0.385606274,1.090693633,0.05,22.43409901,7.777276247,18.66594873,20.22154562,20.61564818,30.65314851,"Diego Alonso Saldana, Laurie Starck, Pascal Mougin, Bernard Rousseau, Nicolas Ferrando, and Benoit Creton. Prediction of density and viscosity of biofuel compounds using machine learning methods. Energy & fuels, 26(4):2416-2426, 2012."
2235,diethyl phthalate,CCOC(=O)c1ccccc1C(=O)OCC,363.1,0.002754062,2.05,0.311753861,1.08456814,0.07,22.47583168,7.688697926,18.50403256,20.03809825,20.38629947,30.94980198,"Diego Alonso Saldana, Laurie Starck, Pascal Mougin, Bernard Rousseau, Nicolas Ferrando, and Benoit Creton. Prediction of density and viscosity of biofuel compounds using machine learning methods. Energy & fuels, 26(4):2416-2426, 2012."
2236,diethyl phthalate,CCOC(=O)c1ccccc1C(=O)OCC,373.1,0.002680247,1.7,0.230448921,1.078063242,0.04,22.52514851,7.573349979,18.3605671,19.86131848,20.17727544,30.87875248,"Diego Alonso Saldana, Laurie Starck, Pascal Mougin, Bernard Rousseau, Nicolas Ferrando, and Benoit Creton. Prediction of density and viscosity of biofuel compounds using machine learning methods. Energy & fuels, 26(4):2416-2426, 2012."
2237,ethyl anthranilate,CCOC(=O)c1ccccc1N,328.15,0.003047387,3.26,0.5132176,1.102349122,0.02,22.11706931,9.094104436,19.38586787,21.41311743,17.07453137,30.5030099,"WE Wasburn. International critical tables of numerical data, physics, chemistry and technology. 1st electronic edition. Knovel: Norwich, NY, 2003."
2238,ethyl acetate,CCOC(C)=O,273.4,0.003657644,0.5763,-0.23935138,0.955463006,0.03,22.20105941,7.989281961,18.4611683,20.11584182,9.461495547,30.68708911,"WE Wasburn. International critical tables of numerical data, physics, chemistry and technology. 1st electronic edition. Knovel: Norwich, NY, 2003."
2239,ethyl acetate,CCOC(C)=O,282.05,0.003545471,0.5144,-0.28869904,0.937868347,0.06,22.34346535,7.791067476,18.05264593,19.66225177,9.240892684,30.90538614,"WE Wasburn. International critical tables of numerical data, physics, chemistry and technology. 1st electronic edition. Knovel: Norwich, NY, 2003."
2240,ethyl acetate,CCOC(C)=O,287.61,0.003476931,0.4795,-0.319211389,0.925222573,0.1,22.4430297,7.641507892,17.76679374,19.34052219,9.08497107,31.06612871,"WE Wasburn. International critical tables of numerical data, physics, chemistry and technology. 1st electronic edition. Knovel: Norwich, NY, 2003."
2241,ethyl acetate,CCOC(C)=O,294.53,0.00339524,0.4418,-0.354774289,0.923958474,0.07,22.45060396,7.60060537,17.71822408,19.27976099,9.05690618,31.07829703,"WE Wasburn. International critical tables of numerical data, physics, chemistry and technology. 1st electronic edition. Knovel: Norwich, NY, 2003."
2242,ethyl acetate,CCOC(C)=O,301.27,0.003319282,0.4096,-0.387640052,0.914493132,0.12,22.52672277,7.487988205,17.48161569,19.01794141,8.927080807,31.16613861,"WE Wasburn. International critical tables of numerical data, physics, chemistry and technology. 1st electronic edition. Knovel: Norwich, NY, 2003."
2243,ethyl acetate,CCOC(C)=O,309.69,0.003229035,0.3738,-0.427360703,0.905553984,0.14,22.60057426,7.369987893,17.27831244,18.78463769,8.820936664,31.28351485,"WE Wasburn. International critical tables of numerical data, physics, chemistry and technology. 1st electronic edition. Knovel: Norwich, NY, 2003."
2244,ethyl acetate,CCOC(C)=O,317.27,0.00315189,0.3455,-0.461551948,0.891688427,0.23,22.71892079,7.233116731,16.95477353,18.43334018,8.654840145,31.41226733,"WE Wasburn. International critical tables of numerical data, physics, chemistry and technology. 1st electronic edition. Knovel: Norwich, NY, 2003."
2245,ethyl acetate,CCOC(C)=O,324.3,0.003083565,0.3224,-0.491604967,0.895700084,0.23,22.68212871,7.237369496,17.01839744,18.49354129,8.685135067,31.42228713,"WE Wasburn. International critical tables of numerical data, physics, chemistry and technology. 1st electronic edition. Knovel: Norwich, NY, 2003."
2246,ethyl acetate,CCOC(C)=O,333.31,0.00300021,0.296,-0.528708289,0.877655858,0.21,22.83879208,7.024398473,16.60435129,18.02920388,8.461459163,31.55210891,"WE Wasburn. International critical tables of numerical data, physics, chemistry and technology. 1st electronic edition. Knovel: Norwich, NY, 2003."
2247,ethyl acetate,CCOC(C)=O,341.58,0.002927572,0.2741,-0.562090965,0.86896194,0.3,22.91890099,6.918078737,16.39742313,17.7972194,8.354501535,31.64732673,"WE Wasburn. International critical tables of numerical data, physics, chemistry and technology. 1st electronic edition. Knovel: Norwich, NY, 2003."
2248,ethyl acetate,CCOC(C)=O,343.15,0.002914177,0.283,-0.548213565,0.868308595,0.3,22.92043564,6.926732717,16.37096827,17.77621315,8.345299795,31.72912871,"WE Wasburn. International critical tables of numerical data, physics, chemistry and technology. 1st electronic edition. Knovel: Norwich, NY, 2003."
2249,ethyl acetate,CCOC(C)=O,347.75,0.002875629,0.2594,-0.586030028,0.853883219,0.37,23.06230693,6.768604278,16.06835294,17.43592733,8.188403922,31.90281188,"WE Wasburn. International critical tables of numerical data, physics, chemistry and technology. 1st electronic edition. Knovel: Norwich, NY, 2003."
2250,Dipropylene glycol ethyl ether,CCOC(C)COC(C)CO,298.15,0.003354016,3.11,0.492760389,0.952482869,0.06,21.36740594,12.06677019,16.77188995,20.66217704,17.9719377,28.89343564,"A Dean John et al. Lange's handbook of chemistry. In Universitas Of Tennese Knoxville, Fifthenth Edition, Mc. Graw Hill Inc, New York. Conference, 1999."
2251,Tripropylene glycol ethyl ether,CCOC(C)COC(C)COC(C)CO,298.15,0.003354016,5.17,0.713490543,0.958953076,0.08,21.41547525,10.64013928,16.48192908,19.61852883,21.72643867,27.61451485,"A Dean John et al. Lange's handbook of chemistry. In Universitas Of Tennese Knoxville, Fifthenth Edition, Mc. Graw Hill Inc, New York. Conference, 1999."
2252,"1,1-Diethoxyethane ",CCOC(C)OCC,298.15,0.003354016,0.44,-0.356547324,0.843904772,0.18,21.95194059,5.080023357,16.02862021,16.81475952,10.0554537,30.19877228,"Valentin Goussard, Francois Duprat, Jean-Luc Ploix, G erard Dreyfus, Veronique Nardello-Rataj, and Jean-Marie Aubry. A new machine-learning tool for fast estimation of liquid viscosity. application to cosmetic oils. Journal of Chemical Information and Modeling, 60(4):2012-2023, 2020."
2253,urethane,CCOC(N)=O,333.15,0.003001651,2.357,0.372359583,1.109184194,0.02,21.73709901,20.08835414,19.50579516,28.00064404,15.71385294,30.14220792,"WE Wasburn. International critical tables of numerical data, physics, chemistry and technology. 1st electronic edition. Knovel: Norwich, NY, 2003."
2254,urethane,CCOC(N)=O,343.15,0.002914177,1.805,0.256477206,1.098744944,0.02,21.80349505,19.73999606,19.2974014,27.60564193,15.45102733,30.23026733,"WE Wasburn. International critical tables of numerical data, physics, chemistry and technology. 1st electronic edition. Knovel: Norwich, NY, 2003."
2255,urethane,CCOC(N)=O,353.15,0.002831658,1.456,0.163161375,1.084626211,0.03,21.90562376,19.37415598,19.0404192,27.16456049,15.18891373,30.3130495,"WE Wasburn. International critical tables of numerical data, physics, chemistry and technology. 1st electronic edition. Knovel: Norwich, NY, 2003."
2256,Ethyl Orthoformate,CCOC(OCC)OCC,298.15,0.003354016,0.68,-0.167491087,0.905899314,0.13,21.87017822,5.932773254,16.43529234,17.47350557,12.53084057,30.05165347,"Valentin Goussard, Francois Duprat, Jean-Luc Ploix, G erard Dreyfus, Veronique Nardello-Rataj, and Jean-Marie Aubry. A new machine-learning tool for fast estimation of liquid viscosity. application to cosmetic oils. Journal of Chemical Information and Modeling, 60(4):2012-2023, 2020."
2257,ethyl formate,CCOC=O,273.61,0.003654837,0.5024,-0.298950369,0.941240309,0.05,22.8249505,7.908629296,18.1999996,19.84419238,7.951210241,31.58709901,"WE Wasburn. International critical tables of numerical data, physics, chemistry and technology. 1st electronic edition. Knovel: Norwich, NY, 2003."
2258,ethyl formate,CCOC=O,279.72,0.003575004,0.4656,-0.331987028,0.927284018,0.1,22.93565347,7.755298708,17.89484746,19.5031739,7.818635675,31.70823762,"WE Wasburn. International critical tables of numerical data, physics, chemistry and technology. 1st electronic edition. Knovel: Norwich, NY, 2003."
2259,ethyl formate,CCOC=O,284.67,0.003512839,0.4409,-0.355659901,0.924248189,0.09,22.96020792,7.702999934,17.80681119,19.4016438,7.776662796,31.76291089,"WE Wasburn. International critical tables of numerical data, physics, chemistry and technology. 1st electronic edition. Knovel: Norwich, NY, 2003."
2260,Ethyl formate,CCOC=O,288.15,0.003470415,0.419,-0.377785977,0.917861963,0.11,23.02438614,7.616343945,17.66279437,19.23508414,7.709606125,31.84214851,"A Dean John et al. Lange's handbook of chemistry. In Universitas Of Tennese Knoxville, Fifthenth Edition, Mc. Graw Hill Inc, New York. Conference, 1999."
2261,ethyl formate,CCOC=O,289.73,0.003451489,0.4171,-0.37975981,0.915390102,0.12,23.03908911,7.587832169,17.60434755,19.17011852,7.683763109,31.93214851,"WE Wasburn. International critical tables of numerical data, physics, chemistry and technology. 1st electronic edition. Knovel: Norwich, NY, 2003."
2262,ethyl formate,CCOC=O,293.15,0.003411223,0.4132,-0.383839687,0.909171767,0.11,23.09228713,7.531371856,17.46926227,19.0237084,7.630274366,32.01705941,"WE Wasburn. International critical tables of numerical data, physics, chemistry and technology. 1st electronic edition. Knovel: Norwich, NY, 2003."
2263,ethyl formate,CCOC=O,295.74,0.003381348,0.391,-0.407823243,0.910964743,0.13,23.07587129,7.515972576,17.4932495,19.03964888,7.633343807,31.90664356,"WE Wasburn. International critical tables of numerical data, physics, chemistry and technology. 1st electronic edition. Knovel: Norwich, NY, 2003."
2264,ethyl formate,CCOC=O,301.05,0.003321707,0.3699,-0.431915669,0.897060154,0.16,23.19615842,7.359704223,17.18563638,18.69536861,7.496705769,32.1090198,"WE Wasburn. International critical tables of numerical data, physics, chemistry and technology. 1st electronic edition. Knovel: Norwich, NY, 2003."
2265,ethyl formate,CCOC=O,306.4,0.003263708,0.3501,-0.455807889,0.89797164,0.19,23.18467327,7.358370694,17.18710727,18.69616334,7.500912176,32.04150495,"WE Wasburn. International critical tables of numerical data, physics, chemistry and technology. 1st electronic edition. Knovel: Norwich, NY, 2003."
2266,ethyl formate,CCOC=O,311.24,0.003212955,0.3344,-0.475733731,0.891663816,0.17,23.24108911,7.272904143,17.0320352,18.52001462,7.429121516,32.24456436,"WE Wasburn. International critical tables of numerical data, physics, chemistry and technology. 1st electronic edition. Knovel: Norwich, NY, 2003."
2267,ethyl formate,CCOC=O,313.15,0.003193358,0.345,-0.462180905,0.887600268,0.18,23.27855446,7.239766176,16.94823716,18.42993744,7.397705892,32.24480198,"WE Wasburn. International critical tables of numerical data, physics, chemistry and technology. 1st electronic edition. Knovel: Norwich, NY, 2003."
2268,ethyl formate,CCOC=O,316.51,0.003159458,0.3178,-0.497846107,0.880576803,0.3,23.33771287,7.155266252,16.78803928,18.24941674,7.325284202,32.34573267,"WE Wasburn. International critical tables of numerical data, physics, chemistry and technology. 1st electronic edition. Knovel: Norwich, NY, 2003."
2269,ethyl formate,CCOC=O,321.76,0.003107907,0.303,-0.518557372,0.880168031,0.28,23.34154455,7.143513095,16.76374601,18.2224486,7.31903837,32.29862376,"WE Wasburn. International critical tables of numerical data, physics, chemistry and technology. 1st electronic edition. Knovel: Norwich, NY, 2003."
2270,ethyl formate,CCOC=O,325.18,0.00307522,0.2942,-0.531357332,0.864599752,0.32,23.47648515,6.988078161,16.43527517,17.85935196,7.177833602,32.58383168,"WE Wasburn. International critical tables of numerical data, physics, chemistry and technology. 1st electronic edition. Knovel: Norwich, NY, 2003."
2271,diethyl ether,CCOCC,322.15,0.003104144,0.242102905,-0.615999999,0.661412217,1.63,23.1550099,4.096897934,13.64021141,14.2424196,6.073442072,31.98931683,"Marina Cocchi, Pier Giuseppe De Benedetti, Renato Seeber, Lorenzo Tassi, and Alessandro Ulrici. Development of quantitative structure- property relationships using calculated descriptors for the prediction of the physicochemical properties of a series of organic solvents. Journal of chemical information and computer sciences, 39(6):1190-1203, 1999."
2272,ethyl isobutyl ether,CCOCC(C)C,273.51,0.003656173,0.4803,-0.318487413,0.76419315,0.21,21.94779208,3.477746624,15.63381886,16.01612641,8.740851675,30.25211881,"WE Wasburn. International critical tables of numerical data, physics, chemistry and technology. 1st electronic edition. Knovel: Norwich, NY, 2003."
2273,ethyl isobutyl ether,CCOCC(C)C,280.49,0.003565189,0.4397,-0.356843534,0.756363014,0.25,22.0190495,3.402377191,15.42464802,15.79571445,8.613215739,30.4739604,"WE Wasburn. International critical tables of numerical data, physics, chemistry and technology. 1st electronic edition. Knovel: Norwich, NY, 2003."
2274,ethyl isobutyl ether,CCOCC(C)C,288.25,0.003469211,0.4003,-0.39761441,0.755700194,0.22,22.02548515,3.372835023,15.38123837,15.7469351,8.585971552,30.37343564,"WE Wasburn. International critical tables of numerical data, physics, chemistry and technology. 1st electronic edition. Knovel: Norwich, NY, 2003."
2275,ethyl isobutyl ether,CCOCC(C)C,294.85,0.003391555,0.3709,-0.430743167,0.735432437,0.28,22.22526733,3.239163498,14.8783728,15.22716795,8.285346509,30.66958416,"WE Wasburn. International critical tables of numerical data, physics, chemistry and technology. 1st electronic edition. Knovel: Norwich, NY, 2003."