Index,Name,CANON_SMILES,Temperature (K),Inverse temperature (1/K),Viscosity (cP),log(Viscosity),MD_density,MD_FV,MD_Rg,MD_SP_E,MD_SP_V,MD_SP,MD_HV,MD_RMSD,Reference
957,tert-amyl alcohol,CCC(C)(C)O,300.39,0.003329006,3.3643,0.526894716,0.824270923,0.14,21.45759406,13.72237658,15.8676626,20.9788226,11.8462748,29.56008911,"WE Wasburn. International critical tables of numerical data, physics, chemistry and technology. 1st electronic edition. Knovel: Norwich, NY, 2003."
958,2-Methyl-2-butanol,CCC(C)(C)O,303.15,0.003298697,2.81,0.44870632,0.811424977,0.19,21.57318812,13.43740392,15.59794124,20.58836961,11.6084865,29.7730495,"A Dean John et al. Lange's handbook of chemistry. In Universitas Of Tennese Knoxville, Fifthenth Edition, Mc. Graw Hill Inc, New York. Conference, 1999."
959,tert-amyl alcohol,CCC(C)(C)O,309.57,0.003230287,2.3322,0.367765791,0.807307673,0.28,21.6009901,13.21358836,15.50759859,20.37422735,11.44846773,29.8330198,"WE Wasburn. International critical tables of numerical data, physics, chemistry and technology. 1st electronic edition. Knovel: Norwich, NY, 2003."
960,tert-amyl alcohol,CCC(C)(C)O,313.15,0.003193358,1.975,0.2955671,0.815119481,0.18,21.54276238,13.18252876,15.67457664,20.48169096,11.46525036,29.68971287,"WE Wasburn. International critical tables of numerical data, physics, chemistry and technology. 1st electronic edition. Knovel: Norwich, NY, 2003."
961,tert-amyl alcohol,CCC(C)(C)O,318.2,0.003142678,1.7135,0.233884109,0.796069014,0.28,21.70761386,12.79301809,15.27139033,19.92232211,11.13661812,29.92585149,"WE Wasburn. International critical tables of numerical data, physics, chemistry and technology. 1st electronic edition. Knovel: Norwich, NY, 2003."
962,tert-amyl alcohol,CCC(C)(C)O,323.15,0.003094538,1.401,0.146438135,0.790161644,0.47,21.76105941,12.54583396,15.13109903,19.6564016,10.94436666,29.95422772,"WE Wasburn. International critical tables of numerical data, physics, chemistry and technology. 1st electronic edition. Knovel: Norwich, NY, 2003."
963,tert-amyl alcohol,CCC(C)(C)O,326.33,0.003064383,1.3199,0.120541029,0.786031858,0.35,21.79391089,12.41569143,15.05313512,19.5133031,10.85454061,29.98908911,"WE Wasburn. International critical tables of numerical data, physics, chemistry and technology. 1st electronic edition. Knovel: Norwich, NY, 2003."
964,tert-amyl alcohol,CCC(C)(C)O,336.1,0.002975305,0.9943,-0.002482561,0.778262251,0.4,21.8700495,11.97993812,14.89011308,19.11186341,10.55612909,30.13246535,"WE Wasburn. International critical tables of numerical data, physics, chemistry and technology. 1st electronic edition. Knovel: Norwich, NY, 2003."
965,tert-amyl alcohol,CCC(C)(C)O,343.15,0.002914177,0.798,-0.097997109,0.766933747,0.55,21.97506931,11.57282509,14.6693319,18.68533798,10.27327848,30.24226733,"WE Wasburn. International critical tables of numerical data, physics, chemistry and technology. 1st electronic edition. Knovel: Norwich, NY, 2003."
966,tert-amyl alcohol,CCC(C)(C)O,345.06,0.002898047,0.7931,-0.10067205,0.765879861,0.67,21.99412871,11.52124988,14.63019946,18.62297086,10.22645393,30.37407921,"WE Wasburn. International critical tables of numerical data, physics, chemistry and technology. 1st electronic edition. Knovel: Norwich, NY, 2003."
967,tert-amyl alcohol,CCC(C)(C)O,354.21,0.002823184,0.64,-0.193820026,0.757802553,0.65,22.068,11.07762358,14.46671868,18.22138733,9.934761726,30.40884158,"WE Wasburn. International critical tables of numerical data, physics, chemistry and technology. 1st electronic edition. Knovel: Norwich, NY, 2003."
968,tert-amyl alcohol,CCC(C)(C)O,358.15,0.002792126,0.573,-0.241845378,0.753941217,0.68,22.10460396,10.93519679,14.38996753,18.07429666,9.840788525,30.47793069,"WE Wasburn. International critical tables of numerical data, physics, chemistry and technology. 1st electronic edition. Knovel: Norwich, NY, 2003."
969,tert-amyl alcohol,CCC(C)(C)O,363.09,0.002754138,0.5301,-0.275642196,0.745856345,0.61,22.18148515,10.67115882,14.21848151,17.77856028,9.65016272,30.62156436,"WE Wasburn. International critical tables of numerical data, physics, chemistry and technology. 1st electronic edition. Knovel: Norwich, NY, 2003."
970,tert-amyl alcohol,CCC(C)(C)O,368.85,0.002711129,0.4718,-0.326242064,0.737435855,0.88,22.27311881,10.42453729,14.03701703,17.4851579,9.467828262,30.63469307,"WE Wasburn. International critical tables of numerical data, physics, chemistry and technology. 1st electronic edition. Knovel: Norwich, NY, 2003."
971,tert-amyl alcohol,CCC(C)(C)O,369.85,0.002703799,0.4643,-0.333201316,0.735621383,0.83,22.28553465,10.39696539,13.99100701,17.43180085,9.438035387,30.63122772,"WE Wasburn. International critical tables of numerical data, physics, chemistry and technology. 1st electronic edition. Knovel: Norwich, NY, 2003."
972,methyl ethyl ketone,CCC(C)=O,273.47,0.003656708,0.5361,-0.270754193,0.842793888,0.06,22.1979505,10.2197056,17.2764958,20.07294789,8.782670207,30.71972277,"WE Wasburn. International critical tables of numerical data, physics, chemistry and technology. 1st electronic edition. Knovel: Norwich, NY, 2003."
973,methyl ethyl ketone,CCC(C)=O,280.19,0.003569007,0.4923,-0.307770164,0.833723548,0.07,22.28124752,10.08978379,17.03685614,19.80052913,8.661134179,30.81145545,"WE Wasburn. International critical tables of numerical data, physics, chemistry and technology. 1st electronic edition. Knovel: Norwich, NY, 2003."
974,methyl ethyl ketone,CCC(C)=O,287.25,0.003481288,0.4522,-0.344669442,0.819158244,0.1,22.41752475,9.893410089,16.70278554,19.41303108,8.499575669,31.03514851,"WE Wasburn. International critical tables of numerical data, physics, chemistry and technology. 1st electronic edition. Knovel: Norwich, NY, 2003."
975,2-Butanone,CCC(C)=O,293.15,0.003411223,0.428,-0.368556231,0.818448786,0.13,22.4210099,9.870837196,16.65991501,19.36464334,8.478655933,30.95780198,"A Dean John et al. Lange's handbook of chemistry. In Universitas Of Tennese Knoxville, Fifthenth Edition, Mc. Graw Hill Inc, New York. Conference, 1999."
976,methyl ethyl ketone,CCC(C)=O,294.46,0.003396047,0.417,-0.379863945,0.817204931,0.18,22.42889109,9.840472681,16.61657335,19.31189463,8.45025135,30.98080198,"WE Wasburn. International critical tables of numerical data, physics, chemistry and technology. 1st electronic edition. Knovel: Norwich, NY, 2003."
977,methyl ethyl ketone,CCC(C)=O,301.51,0.00331664,0.3861,-0.413300198,0.800461339,0.22,22.5820198,9.627763067,16.23255248,18.87308776,8.268041477,31.23707921,"WE Wasburn. International critical tables of numerical data, physics, chemistry and technology. 1st electronic edition. Knovel: Norwich, NY, 2003."
978,methyl ethyl ketone,CCC(C)=O,308.57,0.003240756,0.3586,-0.445389715,0.799599192,0.21,22.58976238,9.583457402,16.1812546,18.80638542,8.236162138,31.28007921,"WE Wasburn. International critical tables of numerical data, physics, chemistry and technology. 1st electronic edition. Knovel: Norwich, NY, 2003."
979,2-Butanone,CCC(C)=O,313.15,0.003193358,0.349,-0.457174573,0.79145823,0.34,22.6620396,9.471635235,15.99144931,18.58609348,8.144322177,31.30318812,"A Dean John et al. Lange's handbook of chemistry. In Universitas Of Tennese Knoxville, Fifthenth Edition, Mc. Graw Hill Inc, New York. Conference, 1999."
980,methyl ethyl ketone,CCC(C)=O,315.64,0.003168166,0.3342,-0.475993554,0.791238916,0.23,22.67681188,9.451737966,15.97420409,18.56106108,8.131094508,31.34257426,"WE Wasburn. International critical tables of numerical data, physics, chemistry and technology. 1st electronic edition. Knovel: Norwich, NY, 2003."
981,methyl ethyl ketone,CCC(C)=O,321.87,0.003106844,0.3149,-0.501827339,0.79003732,0.27,22.68233663,9.417327344,15.92425069,18.50060539,8.106003639,31.34205941,"WE Wasburn. International critical tables of numerical data, physics, chemistry and technology. 1st electronic edition. Knovel: Norwich, NY, 2003."
982,methyl ethyl ketone,CCC(C)=O,329.07,0.003038867,0.2944,-0.531062194,0.776140602,0.31,22.81046535,9.248542472,15.60146043,18.13682922,7.958062752,31.56720792,"WE Wasburn. International critical tables of numerical data, physics, chemistry and technology. 1st electronic edition. Knovel: Norwich, NY, 2003."
983,methyl ethyl ketone,CCC(C)=O,336.89,0.002968328,0.275,-0.560667306,0.755101071,0.74,23.03062376,8.995073612,15.1163192,17.5902631,7.731445959,31.80709901,"WE Wasburn. International critical tables of numerical data, physics, chemistry and technology. 1st electronic edition. Knovel: Norwich, NY, 2003."
984,methyl ethyl ketone,CCC(C)=O,343.41,0.002911971,0.2595,-0.585862638,0.761042569,0.47,22.96323762,9.010356166,15.22399107,17.69069334,7.76950655,31.82210891,"WE Wasburn. International critical tables of numerical data, physics, chemistry and technology. 1st electronic edition. Knovel: Norwich, NY, 2003."
985,methyl ethyl ketone,CCC(C)=O,349.4,0.002862049,0.2465,-0.608183076,0.749758904,0.57,23.07681188,8.869425633,14.95721087,17.3893335,7.64507472,31.89261386,"WE Wasburn. International critical tables of numerical data, physics, chemistry and technology. 1st electronic edition. Knovel: Norwich, NY, 2003."
986,Isopentane,CCC(C)C,293.15,0.003411223,0.214,-0.669586227,0.62452826,0.74,22.42278218,0.496947356,13.87395373,13.88288014,5.904310418,30.81606931,"Sunghwan Kim, Paul A Thiessen, Tiejun Cheng, Jian Zhang, Asta Gindulyte, and Evan E Bolton. Pug-view: programmatic access to chemical annotations integrated in pubchem. Journal of cheminformatics, 11(1):1-11, 2019."
987,2-methylbutyric acid,CCC(C)C(=O)O,291.15,0.003434656,2.409905429,0.382,0.970075727,0.03,21.7499802,16.86303694,17.70340662,24.4496797,15.62092679,29.80755446,"Marina Cocchi, Pier Giuseppe De Benedetti, Renato Seeber, Lorenzo Tassi, and Alessandro Ulrici. Development of quantitative structure- property relationships using calculated descriptors for the prediction of the physicochemical properties of a series of organic solvents. Journal of chemical information and computer sciences, 39(6):1190-1203, 1999."
988,methylethylacetic acid,CCC(C)C(=O)O,293.15,0.003411223,2.055,0.312811826,0.964862867,0.03,21.78823762,16.7971103,17.59847884,24.32818334,15.55623575,29.80090099,"WE Wasburn. International critical tables of numerical data, physics, chemistry and technology. 1st electronic edition. Knovel: Norwich, NY, 2003."
989,"2,2,3-Trimethylpentane",CCC(C)C(C)(C)C,293.15,0.003411223,0.598,-0.223298816,0.72443576,0.31,21.59809901,0.44695269,14.82169009,14.82845627,8.869340267,29.63215842,"A Dean John et al. Lange's handbook of chemistry. In Universitas Of Tennese Knoxville, Fifthenth Edition, Mc. Graw Hill Inc, New York. Conference, 1999."
990,"2,2,3-trimethylpentane",CCC(C)C(C)(C)C,298.15,0.003354016,0.57,-0.244125144,0.71696115,0.3,21.6769802,0.436445451,14.62652689,14.63307677,8.746480718,29.78613861,"Valentin Goussard, Francois Duprat, Jean-Luc Ploix, G erard Dreyfus, Veronique Nardello-Rataj, and Jean-Marie Aubry. A new machine-learning tool for fast estimation of liquid viscosity. application to cosmetic oils. Journal of Chemical Information and Modeling, 60(4):2012-2023, 2020."
991,"2,3-Dimethylpentane",CCC(C)C(C)C,293.15,0.003411223,0.406,-0.391473966,0.702424746,0.28,21.76006931,0.48427215,14.83401084,14.84195161,8.093206531,29.79973267,"A Dean John et al. Lange's handbook of chemistry. In Universitas Of Tennese Knoxville, Fifthenth Edition, Mc. Graw Hill Inc, New York. Conference, 1999."
992,3-methylpentane,CCC(C)CC,288.15,0.003470415,0.339,-0.469800302,0.672870757,0.41,21.9880297,0.522872886,14.65852362,14.66787653,7.158368027,30.34081188,"WE Wasburn. International critical tables of numerical data, physics, chemistry and technology. 1st electronic edition. Knovel: Norwich, NY, 2003."
993,3-methylpentane,CCC(C)CC,293.136,0.003411386,0.3031,-0.518414064,0.66085076,0.49,22.12345545,0.511347868,14.34233249,14.35148122,7.001901362,30.49782178,"Sunghwan Kim, Paul A Thiessen, Tiejun Cheng, Jian Zhang, Asta Gindulyte, and Evan E Bolton. Pug-view: programmatic access to chemical annotations integrated in pubchem. Journal of cheminformatics, 11(1):1-11, 2019."
994,3-methylpentane,CCC(C)CC,303.15,0.003298697,0.292,-0.534617149,0.650927014,0.5,22.23254455,0.499022755,14.05171545,14.06060491,6.858162924,30.62513861,"WE Wasburn. International critical tables of numerical data, physics, chemistry and technology. 1st electronic edition. Knovel: Norwich, NY, 2003."
995,3-methyl-1-pentanol,CCC(C)CCO,338.1,0.002957705,1.07,0.029383778,0.789391273,0.23,21.71545545,13.21464115,14.83293328,19.86613999,12.88140522,29.93078218,"Diego Alonso Saldana, Laurie Starck, Pascal Mougin, Bernard Rousseau, Nicolas Ferrando, and Benoit Creton. Prediction of density and viscosity of biofuel compounds using machine learning methods. Energy & fuels, 26(4):2416-2426, 2012."
996,3-methyl-1-pentanol,CCC(C)CCO,348.1,0.002872738,0.84,-0.075720714,0.768299442,0.49,21.90752475,12.70234956,14.38610217,19.19218346,12.39986041,30.18231683,"Diego Alonso Saldana, Laurie Starck, Pascal Mougin, Bernard Rousseau, Nicolas Ferrando, and Benoit Creton. Prediction of density and viscosity of biofuel compounds using machine learning methods. Energy & fuels, 26(4):2416-2426, 2012."
997,3-methyl-1-pentanol,CCC(C)CCO,358.1,0.002792516,0.68,-0.167491087,0.763476396,0.58,21.95030693,12.37971941,14.28586554,18.9044042,12.14301058,30.20871287,"Diego Alonso Saldana, Laurie Starck, Pascal Mougin, Bernard Rousseau, Nicolas Ferrando, and Benoit Creton. Prediction of density and viscosity of biofuel compounds using machine learning methods. Energy & fuels, 26(4):2416-2426, 2012."
998,3-methyl-1-pentanol,CCC(C)CCO,368.1,0.002716653,0.56,-0.251811973,0.750406938,0.51,22.07523762,11.96883778,14.02536588,18.43910887,11.79659299,30.36856436,"Diego Alonso Saldana, Laurie Starck, Pascal Mougin, Bernard Rousseau, Nicolas Ferrando, and Benoit Creton. Prediction of density and viscosity of biofuel compounds using machine learning methods. Energy & fuels, 26(4):2416-2426, 2012."
999,3-methyl-1-pentanol,CCC(C)CCO,378.1,0.002644803,0.47,-0.327902142,0.74398935,0.65,22.14729703,11.62490888,13.88566575,18.11023852,11.51728884,30.45275248,"Diego Alonso Saldana, Laurie Starck, Pascal Mougin, Bernard Rousseau, Nicolas Ferrando, and Benoit Creton. Prediction of density and viscosity of biofuel compounds using machine learning methods. Energy & fuels, 26(4):2416-2426, 2012."
1000,3-methyl-1-pentanol,CCC(C)CCO,388.1,0.002576656,0.4,-0.397940009,0.728605501,0.82,22.2910396,11.13374906,13.5876368,17.56750346,11.11548248,30.68078218,"Diego Alonso Saldana, Laurie Starck, Pascal Mougin, Bernard Rousseau, Nicolas Ferrando, and Benoit Creton. Prediction of density and viscosity of biofuel compounds using machine learning methods. Energy & fuels, 26(4):2416-2426, 2012."
1001,3-methyl-1-pentanol,CCC(C)CCO,398.1,0.002511932,0.35,-0.455931956,0.715005748,1.16,22.43643564,10.69912854,13.30202041,17.0718189,10.74566106,30.81771287,"Diego Alonso Saldana, Laurie Starck, Pascal Mougin, Bernard Rousseau, Nicolas Ferrando, and Benoit Creton. Prediction of density and viscosity of biofuel compounds using machine learning methods. Energy & fuels, 26(4):2416-2426, 2012."
1002,2-methyl-1-butanol,CCC(C)CO,291.15,0.003434656,5.495408739,0.74,0.817605534,0.18,21.50964356,15.46175226,15.45830798,21.86416477,12.89697063,29.60168317,"Marina Cocchi, Pier Giuseppe De Benedetti, Renato Seeber, Lorenzo Tassi, and Alessandro Ulrici. Development of quantitative structure- property relationships using calculated descriptors for the prediction of the physicochemical properties of a series of organic solvents. Journal of chemical information and computer sciences, 39(6):1190-1203, 1999."
1003,2-Methylbutyl acetate,CCC(C)COC(C)=O,293.15,0.003411223,0.872,-0.059483515,0.889869498,0.07,21.9460495,5.200376386,16.94961076,17.72958442,11.57380996,30.16467327,"A Dean John et al. Lange's handbook of chemistry. In Universitas Of Tennese Knoxville, Fifthenth Edition, Mc. Graw Hill Inc, New York. Conference, 1999."
1004,2-Chlorobutane,CCC(C)Cl,288.15,0.003470415,0.439,-0.35753548,0.897547629,0.23,23.04236634,6.120161275,15.95366834,17.08744786,7.769885942,31.75953465,"A Dean John et al. Lange's handbook of chemistry. In Universitas Of Tennese Knoxville, Fifthenth Edition, Mc. Graw Hill Inc, New York. Conference, 1999."
1005,sec-Butylamine,CCC(C)N,273.15,0.003660992,0.77,-0.113509275,0.787585849,0.14,21.27630693,13.35233006,15.77326795,20.66638062,10.02234997,29.35122772,"A Dean John et al. Lange's handbook of chemistry. In Universitas Of Tennese Knoxville, Fifthenth Edition, Mc. Graw Hill Inc, New York. Conference, 1999."
1006,sec-Butylamine,CCC(C)N,298.15,0.003354016,0.571,-0.243363892,0.7635736,0.23,21.50787129,12.22070538,15.27264619,19.56071939,9.351945534,29.67753465,"A Dean John et al. Lange's handbook of chemistry. In Universitas Of Tennese Knoxville, Fifthenth Edition, Mc. Graw Hill Inc, New York. Conference, 1999."
1007,sec-Butylamine,CCC(C)N,323.15,0.003094538,0.367,-0.435333936,0.737416911,0.42,21.75512871,11.17087703,14.6991039,18.46295711,8.722862499,30.07992079,"A Dean John et al. Lange's handbook of chemistry. In Universitas Of Tennese Knoxville, Fifthenth Edition, Mc. Graw Hill Inc, New York. Conference, 1999."
1008,2-butanol,CCC(C)O,288.1,0.003471017,4.65,0.667452953,0.816274489,0.2,21.59255446,16.49464338,15.65853349,22.74387253,11.79934179,29.84418812,"Diego Alonso Saldana, Laurie Starck, Pascal Mougin, Bernard Rousseau, Nicolas Ferrando, and Benoit Creton. Prediction of density and viscosity of biofuel compounds using machine learning methods. Energy & fuels, 26(4):2416-2426, 2012."
1009,Sec-butyl alcohol,CCC(C)O,288.15,0.003470415,4.21,0.624282096,0.822442588,0.14,21.53108911,16.57245551,15.78991288,22.8907059,11.85953385,29.7810099,"Sunghwan Kim, Paul A Thiessen, Tiejun Cheng, Jian Zhang, Asta Gindulyte, and Evan E Bolton. Pug-view: programmatic access to chemical annotations integrated in pubchem. Journal of cheminformatics, 11(1):1-11, 2019."
1010,2-butanol,CCC(C)O,293.1,0.003411805,3.53,0.547774705,0.812389722,0.18,21.62327723,16.31279457,15.57074648,22.55159009,11.67299988,29.83132673,"Diego Alonso Saldana, Laurie Starck, Pascal Mougin, Bernard Rousseau, Nicolas Ferrando, and Benoit Creton. Prediction of density and viscosity of biofuel compounds using machine learning methods. Energy & fuels, 26(4):2416-2426, 2012."
1011,2-butanol,CCC(C)O,298.1,0.003354579,3.08,0.488550717,0.811604351,0.15,21.62861386,16.16541501,15.57146206,22.44566539,11.5896697,29.85310891,"Diego Alonso Saldana, Laurie Starck, Pascal Mougin, Bernard Rousseau, Nicolas Ferrando, and Benoit Creton. Prediction of density and viscosity of biofuel compounds using machine learning methods. Energy & fuels, 26(4):2416-2426, 2012."
1012,2-butanol,CCC(C)O,303.1,0.003299241,2.67,0.426511261,0.808629539,0.2,21.6580495,15.95936188,15.53642533,22.27343311,11.4713076,29.88828713,"Diego Alonso Saldana, Laurie Starck, Pascal Mougin, Bernard Rousseau, Nicolas Ferrando, and Benoit Creton. Prediction of density and viscosity of biofuel compounds using machine learning methods. Energy & fuels, 26(4):2416-2426, 2012."
1013,2-butanol,CCC(C)O,308.1,0.003245699,2.31,0.36361198,0.799662203,0.12,21.74445545,15.66092627,15.33664586,21.92028346,11.25739873,30.0200198,"Diego Alonso Saldana, Laurie Starck, Pascal Mougin, Bernard Rousseau, Nicolas Ferrando, and Benoit Creton. Prediction of density and viscosity of biofuel compounds using machine learning methods. Energy & fuels, 26(4):2416-2426, 2012."
1014,2-butanol,CCC(C)O,313.1,0.003193868,1.8,0.255272505,0.791306633,0.22,21.82086139,15.39475104,15.18760693,21.62605987,11.09293027,30.12919802,"Diego Alonso Saldana, Laurie Starck, Pascal Mougin, Bernard Rousseau, Nicolas Ferrando, and Benoit Creton. Prediction of density and viscosity of biofuel compounds using machine learning methods. Energy & fuels, 26(4):2416-2426, 2012."