Index,Name,CANON_SMILES,Temperature (K),Inverse temperature (1/K),Viscosity (cP),log(Viscosity),MD_density,MD_FV,MD_Rg,MD_SP_E,MD_SP_V,MD_SP,MD_HV,MD_RMSD,Reference
787,menthol,CC(C)[C@@H]1CC[C@@H](C)C[C@H]1O,355.35,0.002814127,1.85,0.267171728,0.849144441,0.26,21.46924752,9.311362489,15.30795377,17.91848275,14.82859616,29.24612871,"WE Wasburn. International critical tables of numerical data, physics, chemistry and technology. 1st electronic edition. Knovel: Norwich, NY, 2003."
788,menthol,CC(C)[C@@H]1CC[C@@H](C)C[C@H]1O,372.15,0.002687089,1.04,0.017033339,0.830757422,0.33,21.62306931,8.621302359,14.90909884,17.22359017,14.07677312,29.50762376,"WE Wasburn. International critical tables of numerical data, physics, chemistry and technology. 1st electronic edition. Knovel: Norwich, NY, 2003."
789,isopropylbenzene,CC(C)c1ccccc1,322.15,0.003104144,0.739605275,-0.131,0.845972649,0.24,22.40285149,3.697021244,16.40083801,16.81264219,10.23881672,30.89016832,"Marina Cocchi, Pier Giuseppe De Benedetti, Renato Seeber, Lorenzo Tassi, and Alessandro Ulrici. Development of quantitative structure- property relationships using calculated descriptors for the prediction of the physicochemical properties of a series of organic solvents. Journal of chemical information and computer sciences, 39(6):1190-1203, 1999."
790,"3,5,5-trimethylhexanal",CC(CC=O)CC(C)(C)C,293.15,0.003411223,1.4,0.146128036,0.849202337,0.11,21.50653465,6.285566221,16.549743,17.70341938,13.12951522,29.47341584,"Sunghwan Kim, Paul A Thiessen, Tiejun Cheng, Jian Zhang, Asta Gindulyte, and Evan E Bolton. Pug-view: programmatic access to chemical annotations integrated in pubchem. Journal of cheminformatics, 11(1):1-11, 2019."
791,Bis(2-chloro-1-methylethyl) ether,CC(CCl)OC(C)CCl,293.15,0.003411223,2.3,0.361727836,1.144771078,0.03,22.7799901,9.781282935,17.51897993,20.0648256,14.96142472,31.25407921,"Sunghwan Kim, Paul A Thiessen, Tiejun Cheng, Jian Zhang, Asta Gindulyte, and Evan E Bolton. Pug-view: programmatic access to chemical annotations integrated in pubchem. Journal of cheminformatics, 11(1):1-11, 2019."
792,Trifluoro-2-methyl propanol,CC(CO)C(F)(F)F,298.15,0.003354016,3.32,0.521138084,1.214211326,0.19,22.69549505,16.17615447,14.24611463,21.5554732,12.3079515,31.26257426,"Dabir S Viswanath, Tushar K Ghosh, Dasika HL Prasad, Nidamarty VK Dutt, Kalipatnapu Y Rani, Dabir S Viswanath, Tushar K Ghosh, Dasika HL Prasad, Nidamarty VK Dutt, and Kalipatnapu Y Rani. Correlations and estimation of pure liquid viscosity.Viscosity of Liquids: Theory, Estimation, Experiment, and Data, pages 135-405, 2007."
793,Œ≤-phenylpropyl alcohol,CC(CO)c1ccccc1,298.15,0.003354016,15.6,1.193124598,1.006872616,0.02,21.69784158,13.26489895,18.06234617,22.41045236,16.82915856,29.16158416,"WE Wasburn. International critical tables of numerical data, physics, chemistry and technology. 1st electronic edition. Knovel: Norwich, NY, 2003."
794,"1,1,1-Trichloroethane",CC(Cl)(Cl)Cl,288.15,0.003470415,0.903,-0.04431225,1.445192817,0.05,26.75429703,5.549149473,18.09339689,18.92530388,8.474580885,37.17152475,"A Dean John et al. Lange's handbook of chemistry. In Universitas Of Tennese Knoxville, Fifthenth Edition, Mc. Graw Hill Inc, New York. Conference, 1999."
795,"1,1,1-trichloroethane",CC(Cl)(Cl)Cl,293.15,0.003411223,0.86,-0.065501549,1.437857171,0.08,26.80831683,5.49934424,17.96904929,18.7918062,8.413177692,37.18164356,"Sunghwan Kim, Paul A Thiessen, Tiejun Cheng, Jian Zhang, Asta Gindulyte, and Evan E Bolton. Pug-view: programmatic access to chemical annotations integrated in pubchem. Journal of cheminformatics, 11(1):1-11, 2019."
796,"1,1,1-Trichloroethane",CC(Cl)(Cl)Cl,303.15,0.003298697,0.725,-0.139661993,1.408774533,0.13,26.98470297,5.363380491,17.53638313,18.33829419,8.2135932,37.49733663,"A Dean John et al. Lange's handbook of chemistry. In Universitas Of Tennese Knoxville, Fifthenth Edition, Mc. Graw Hill Inc, New York. Conference, 1999."
797,"1,2-Dichloropropane",CC(Cl)CCl,298.15,0.003354016,0.7,-0.15490196,1.167082562,0.12,24.45521782,8.354335872,17.17249384,19.09706158,9.030990361,33.87263366,"A Dean John et al. Lange's handbook of chemistry. In Universitas Of Tennese Knoxville, Fifthenth Edition, Mc. Graw Hill Inc, New York. Conference, 1999."
798,"1,2-Dichloroethane",CC(Cl)Cl,273.15,0.003660992,1.125,0.051152522,1.261916848,0.06,25.34992079,9.389292318,17.86430235,20.18153724,8.1766052,35.1709505,"A Dean John et al. Lange's handbook of chemistry. In Universitas Of Tennese Knoxville, Fifthenth Edition, Mc. Graw Hill Inc, New York. Conference, 1999."
799,"1,1-dichloroethane",CC(Cl)Cl,280.21,0.003568752,0.5686,-0.245193145,1.254092782,0.07,25.39018812,9.298020326,17.7141061,20.00613387,8.105315542,35.21740594,"WE Wasburn. International critical tables of numerical data, physics, chemistry and technology. 1st electronic edition. Knovel: Norwich, NY, 2003."
800,"1,1-dichloroethane",CC(Cl)Cl,284.39,0.003516298,0.5413,-0.266561973,1.239703557,0.09,25.48567327,9.174499706,17.48681645,19.74747713,8.005063976,35.42915842,"WE Wasburn. International critical tables of numerical data, physics, chemistry and technology. 1st electronic edition. Knovel: Norwich, NY, 2003."
801,"1,1-Dichloroethane",CC(Cl)Cl,288.15,0.003470415,0.505,-0.296708622,1.230467322,0.11,25.56085149,9.105605127,17.33317892,19.57942323,7.941345785,35.47459406,"A Dean John et al. Lange's handbook of chemistry. In Universitas Of Tennese Knoxville, Fifthenth Edition, Mc. Graw Hill Inc, New York. Conference, 1999."
802,"1,1-dichloroethane",CC(Cl)Cl,288.49,0.003466325,0.5156,-0.287687091,1.233508756,0.09,25.53571287,9.111640888,17.37476263,19.61905973,7.953647777,35.42830693,"WE Wasburn. International critical tables of numerical data, physics, chemistry and technology. 1st electronic edition. Knovel: Norwich, NY, 2003."
803,"1,1-Dichloro ethane",CC(Cl)Cl,292.15,0.003422899,0.49,-0.30980392,1.228079455,0.12,25.57728713,9.067379568,17.27945578,19.51408733,7.914441164,35.47043564,"Dabir S Viswanath, Tushar K Ghosh, Dasika HL Prasad, Nidamarty VK Dutt, Kalipatnapu Y Rani, Dabir S Viswanath, Tushar K Ghosh, Dasika HL Prasad, Nidamarty VK Dutt, and Kalipatnapu Y Rani. Correlations and estimation of pure liquid viscosity.Viscosity of Liquids: Theory, Estimation, Experiment, and Data, pages 135-405, 2007."
804,"1,1-dichloroethane",CC(Cl)Cl,292.46,0.003419271,0.4934,-0.306800855,1.231457129,0.12,25.54829703,9.089774444,17.3258675,19.56558282,7.933583219,35.50345545,"WE Wasburn. International critical tables of numerical data, physics, chemistry and technology. 1st electronic edition. Knovel: Norwich, NY, 2003."
805,"1,1-dichloroethane",CC(Cl)Cl,296.37,0.003374161,0.4736,-0.324588306,1.220497881,0.16,25.62653465,8.99484012,17.14808172,19.36404898,7.855338592,35.49471287,"WE Wasburn. International critical tables of numerical data, physics, chemistry and technology. 1st electronic edition. Knovel: Norwich, NY, 2003."
806,"1,1-dichloroethane",CC(Cl)Cl,301.0,0.003322259,0.4506,-0.346208813,1.203037232,0.19,25.74836634,8.856820473,16.87560703,19.05864362,7.739296512,35.78951485,"WE Wasburn. International critical tables of numerical data, physics, chemistry and technology. 1st electronic edition. Knovel: Norwich, NY, 2003."
807,"1,1-dichloroethane",CC(Cl)Cl,304.7,0.003281917,0.4337,-0.362810578,1.202732797,0.19,25.74655446,8.838658201,16.85818365,19.0347926,7.730595344,35.74420792,"WE Wasburn. International critical tables of numerical data, physics, chemistry and technology. 1st electronic edition. Knovel: Norwich, NY, 2003."
808,"1,1-dichloroethane",CC(Cl)Cl,308.76,0.003238761,0.416,-0.380906669,1.203645082,0.21,25.74252475,8.816492259,16.85128513,19.01838753,7.720999498,35.74313861,"WE Wasburn. International critical tables of numerical data, physics, chemistry and technology. 1st electronic edition. Knovel: Norwich, NY, 2003."
809,"1,1-dichloroethane",CC(Cl)Cl,313.33,0.003191523,0.3976,-0.400553624,1.191377088,0.22,25.82881188,8.726926797,16.65146066,18.79982168,7.639168247,35.8169505,"WE Wasburn. International critical tables of numerical data, physics, chemistry and technology. 1st electronic edition. Knovel: Norwich, NY, 2003."
810,"1,1-dichloroethane",CC(Cl)Cl,316.89,0.003155669,0.3836,-0.416121402,1.191367327,0.22,25.83564356,8.700666603,16.63941191,18.77694299,7.629235633,35.91346535,"WE Wasburn. International critical tables of numerical data, physics, chemistry and technology. 1st electronic edition. Knovel: Norwich, NY, 2003."
811,"1,1-dichloroethane",CC(Cl)Cl,321.1,0.003114295,0.3695,-0.432385557,1.181652763,0.29,25.89772277,8.62187235,16.47524535,18.59498063,7.559038108,36.02563366,"WE Wasburn. International critical tables of numerical data, physics, chemistry and technology. 1st electronic edition. Knovel: Norwich, NY, 2003."
812,"1,1-dichloroethane",CC(Cl)Cl,327.69,0.003051665,0.3476,-0.458920232,1.172023127,0.3,25.96576238,8.526966386,16.31729871,18.41103248,7.491621425,36.10888119,"WE Wasburn. International critical tables of numerical data, physics, chemistry and technology. 1st electronic edition. Knovel: Norwich, NY, 2003."
813,"1,1-dichloro-1-fluoroethane",CC(F)(Cl)Cl,298.15,0.003354016,0.409,-0.388276692,1.312069223,0.3,26.44380198,3.357691579,16.0272799,16.3753621,6.305044582,36.69329703,"Sunghwan Kim, Paul A Thiessen, Tiejun Cheng, Jian Zhang, Asta Gindulyte, and Evan E Bolton. Pug-view: programmatic access to chemical annotations integrated in pubchem. Journal of cheminformatics, 11(1):1-11, 2019."
814,"1-chloro-1,1-difluoroethane",CC(F)(F)Cl,252.25,0.003964321,0.453,-0.343901798,1.270479613,0.31,25.4150297,4.556572378,15.22018361,15.88770547,5.273337607,35.30845545,"Sunghwan Kim, Paul A Thiessen, Tiejun Cheng, Jian Zhang, Asta Gindulyte, and Evan E Bolton. Pug-view: programmatic access to chemical annotations integrated in pubchem. Journal of cheminformatics, 11(1):1-11, 2019."
815,1-fluoro-1-chloroethane,CC(F)Cl,324.15,0.003084992,0.561047976,-0.251,0.934027012,2.11,26.37714851,4.104320232,12.76165601,13.40559744,4.438180584,36.4919802,"Marina Cocchi, Pier Giuseppe De Benedetti, Renato Seeber, Lorenzo Tassi, and Alessandro Ulrici. Development of quantitative structure- property relationships using calculated descriptors for the prediction of the physicochemical properties of a series of organic solvents. Journal of chemical information and computer sciences, 39(6):1190-1203, 1999."
816,"1,1-difluoroethane",CC(F)F,283.15,0.003531697,0.263,-0.580044252,0.828180757,3.18,25.48827723,7.193198469,10.82014851,12.99314292,3.780705153,35.33384158,"Sunghwan Kim, Paul A Thiessen, Tiejun Cheng, Jian Zhang, Asta Gindulyte, and Evan E Bolton. Pug-view: programmatic access to chemical annotations integrated in pubchem. Journal of cheminformatics, 11(1):1-11, 2019."
817,Acetamide,CC(N)=O,364.25,0.002745367,2.182,0.338854746,1.015446105,0.04,22.0579901,24.26125331,19.06434082,30.8556778,13.96026323,30.58263366,"Sunghwan Kim, Paul A Thiessen, Tiejun Cheng, Jian Zhang, Asta Gindulyte, and Evan E Bolton. Pug-view: programmatic access to chemical annotations integrated in pubchem. Journal of cheminformatics, 11(1):1-11, 2019."
818,Acetamide,CC(N)=O,367.15,0.002723682,1.63,0.212187604,1.015870302,0.05,22.05409901,24.23875926,19.06283291,30.83700219,13.94449212,30.60308911,"A Dean John et al. Lange's handbook of chemistry. In Universitas Of Tennese Knoxville, Fifthenth Edition, Mc. Graw Hill Inc, New York. Conference, 1999."
819,Lactonitrile,CC(O)C#N,303.15,0.003298697,2.01,0.303196057,0.955900748,0.12,23.11815842,22.45185859,15.43854243,27.24782766,13.79706896,32.05762376,"A Dean John et al. Lange's handbook of chemistry. In Universitas Of Tennese Knoxville, Fifthenth Edition, Mc. Graw Hill Inc, New York. Conference, 1999."
820,Diisopropanolamine,CC(O)CNCC(C)O,318.15,0.003143171,1.98,0.29666519,0.992314123,0.04,21.03265347,18.95929544,16.59502207,25.19673111,20.99913251,26.4380396,"Sunghwan Kim, Paul A Thiessen, Tiejun Cheng, Jian Zhang, Asta Gindulyte, and Evan E Bolton. Pug-view: programmatic access to chemical annotations integrated in pubchem. Journal of cheminformatics, 11(1):1-11, 2019."
821,Propylene glycol mono-t-butyl ether,CC(O)COC(C)(C)C,298.15,0.003354016,3.3,0.51851394,0.876533073,0.12,21.55659406,9.886627919,15.97363742,18.78686707,13.31574561,29.55333663,"Sunghwan Kim, Paul A Thiessen, Tiejun Cheng, Jian Zhang, Asta Gindulyte, and Evan E Bolton. Pug-view: programmatic access to chemical annotations integrated in pubchem. Journal of cheminformatics, 11(1):1-11, 2019."
822,Propylene glycol phenyl ether,CC(O)COc1ccccc1,298.15,0.003354016,22.7,1.356025857,1.063389693,0.02,21.77935644,13.02129275,18.77203599,22.84648766,18.44721293,27.44955446,"Sunghwan Kim, Paul A Thiessen, Tiejun Cheng, Jian Zhang, Asta Gindulyte, and Evan E Bolton. Pug-view: programmatic access to chemical annotations integrated in pubchem. Journal of cheminformatics, 11(1):1-11, 2019."
823,thiobis(2-ethanol),CC(O)SC(C)O,298.15,0.003354016,0.839459987,-0.076,1.134017562,0.01,21.92035644,16.44487697,19.02005252,25.14390461,16.87333976,30.21093069,"Gregory W Kau man and Peter C Jurs. Prediction of surface tension, viscosity, and thermal conductivity for common organic solvents using quantitative structure- property relationships. Journal of chemical information and computer sciences, 41(2):408-418, 2001."
824,"1,8-cineole",CC12CCC(CC1)C(C)(C)O2,298.15,0.003354016,2.301441817,0.362,0.930558434,0.07,21.17527723,2.487214027,16.72781772,16.91194186,11.92392759,28.87242574,"Gregory W Kau man and Peter C Jurs. Prediction of surface tension, viscosity, and thermal conductivity for common organic solvents using quantitative structure- property relationships. Journal of chemical information and computer sciences, 41(2):408-418, 2001."
825,Isophorone,CC1=CC(=O)CC(C)(C)C1,293.15,0.003411223,2.62,0.418301291,0.944106137,0.03,21.65145545,7.237855502,18.19719418,19.58387072,14.00164093,29.4390495,"Sunghwan Kim, Paul A Thiessen, Tiejun Cheng, Jian Zhang, Asta Gindulyte, and Evan E Bolton. Pug-view: programmatic access to chemical annotations integrated in pubchem. Journal of cheminformatics, 11(1):1-11, 2019."
826,L-Pinene,CC1=CCC2CC1C2(C)C,293.15,0.003411223,1.7,0.230448921,0.865729954,0.08,21.58688119,1.409322385,16.48270766,16.54300031,10.87579299,29.57616832,"A Dean John et al. Lange's handbook of chemistry. In Universitas Of Tennese Knoxville, Fifthenth Edition, Mc. Graw Hill Inc, New York. Conference, 1999."
827,1-Methylcyclohex-1-ene,CC1=CCCCC1,298.15,0.003354016,0.42,-0.37675071,0.796212424,0.15,21.95289109,1.727546354,16.56328853,16.65340928,8.598887303,30.27368317,"Valentin Goussard, Francois Duprat, Jean-Luc Ploix, G erard Dreyfus, Veronique Nardello-Rataj, and Jean-Marie Aubry. A new machine-learning tool for fast estimation of liquid viscosity. application to cosmetic oils. Journal of Chemical Information and Modeling, 60(4):2012-2023, 2020."
828,3-Methylcyclopentene,CC1C=CCC1,298.15,0.003354016,0.29,-0.537602002,0.766644599,0.29,22.32045545,1.729107016,16.0445873,16.13776861,7.2618849,30.72338614,"Valentin Goussard, Francois Duprat, Jean-Luc Ploix, G erard Dreyfus, Veronique Nardello-Rataj, and Jean-Marie Aubry. A new machine-learning tool for fast estimation of liquid viscosity. application to cosmetic oils. Journal of Chemical Information and Modeling, 60(4):2012-2023, 2020."
829,"trans-1,3,5-Trimethylcyclohexane",CC1CC(C)CC(C)C1,303.15,0.003298697,0.624,-0.20481541,0.787824872,0.15,21.4549802,0.5894542,15.72413685,15.73521079,10.08506729,29.4529604,"A Dean John et al. Lange's handbook of chemistry. In Universitas Of Tennese Knoxville, Fifthenth Edition, Mc. Graw Hill Inc, New York. Conference, 1999."
830,menthone,CC1CCC(C(C)C)C(=O)C1,298.15,0.003354016,2.31,0.36361198,0.892786937,0.05,21.46873267,5.051108022,17.02607313,17.7596565,13.61701069,29.41450495,"WE Wasburn. International critical tables of numerical data, physics, chemistry and technology. 1st electronic edition. Knovel: Norwich, NY, 2003."
831,"cis-1,3-Dimethylcyclohexane ",CC1CCCC(C)C1,298.15,0.003354016,0.68,-0.167491087,0.78320711,0.17,21.49440594,0.621746299,15.84567155,15.85789396,9.203925822,29.48866337,"Valentin Goussard, Francois Duprat, Jean-Luc Ploix, G erard Dreyfus, Veronique Nardello-Rataj, and Jean-Marie Aubry. A new machine-learning tool for fast estimation of liquid viscosity. application to cosmetic oils. Journal of Chemical Information and Modeling, 60(4):2012-2023, 2020."
832,methylcyclopentane,CC1CCCC1,253.1,0.003951008,0.86,-0.065501549,0.784425227,0.1,21.47935644,0.796090101,16.85003905,16.86886593,7.799923907,29.62824752,"Diego Alonso Saldana, Laurie Starck, Pascal Mougin, Bernard Rousseau, Nicolas Ferrando, and Benoit Creton. Prediction of density and viscosity of biofuel compounds using machine learning methods. Energy & fuels, 26(4):2416-2426, 2012."
833,methylcyclopentane,CC1CCCC1,263.1,0.003800836,0.74,-0.13076828,0.780744595,0.09,21.5120099,0.79687792,16.71099812,16.73001453,7.734002645,29.59209901,"Diego Alonso Saldana, Laurie Starck, Pascal Mougin, Bernard Rousseau, Nicolas Ferrando, and Benoit Creton. Prediction of density and viscosity of biofuel compounds using machine learning methods. Energy & fuels, 26(4):2416-2426, 2012."
834,methylcyclopentane,CC1CCCC1,273.1,0.003661662,0.65,-0.187086643,0.771388025,0.13,21.60028713,0.773605913,16.44511597,16.46333692,7.610524233,29.73674257,"Diego Alonso Saldana, Laurie Starck, Pascal Mougin, Bernard Rousseau, Nicolas Ferrando, and Benoit Creton. Prediction of density and viscosity of biofuel compounds using machine learning methods. Energy & fuels, 26(4):2416-2426, 2012."
835,methylcyclopentane,CC1CCCC1,283.1,0.003532321,0.57,-0.244125144,0.757433285,0.13,21.73625743,0.751131612,16.0589687,16.07656784,7.42638118,29.95846535,"Diego Alonso Saldana, Laurie Starck, Pascal Mougin, Bernard Rousseau, Nicolas Ferrando, and Benoit Creton. Prediction of density and viscosity of biofuel compounds using machine learning methods. Energy & fuels, 26(4):2416-2426, 2012."
836,methylcyclopentane,CC1CCCC1,288.1,0.003471017,0.53,-0.27572413,0.753868292,0.19,21.76671287,0.744707199,15.95377869,15.97119161,7.378667473,29.95976238,"Diego Alonso Saldana, Laurie Starck, Pascal Mougin, Bernard Rousseau, Nicolas Ferrando, and Benoit Creton. Prediction of density and viscosity of biofuel compounds using machine learning methods. Energy & fuels, 26(4):2416-2426, 2012."
837,methylcyclopentane,CC1CCCC1,288.15,0.003470415,0.545,-0.263603498,0.748704591,0.24,21.8120099,0.735756334,15.82528765,15.84241707,7.315640712,30.02843564,"WE Wasburn. International critical tables of numerical data, physics, chemistry and technology. 1st electronic edition. Knovel: Norwich, NY, 2003."
838,methylcyclopentane,CC1CCCC1,293.1,0.003411805,0.51,-0.292429824,0.749747912,0.2,21.80158416,0.73448656,15.84160175,15.85865195,7.329911681,29.99255446,"Diego Alonso Saldana, Laurie Starck, Pascal Mougin, Bernard Rousseau, Nicolas Ferrando, and Benoit Creton. Prediction of density and viscosity of biofuel compounds using machine learning methods. Energy & fuels, 26(4):2416-2426, 2012."
839,methylcyclopentane,CC1CCCC1,293.15,0.003411223,0.521,-0.283162277,0.735092586,0.42,21.94872277,0.713487128,15.48600233,15.50246256,7.158864416,30.20412871,"WE Wasburn. International critical tables of numerical data, physics, chemistry and technology. 1st electronic edition. Knovel: Norwich, NY, 2003."
840,methylcyclopentane,CC1CCCC1,298.1,0.003354579,0.48,-0.318758763,0.738283581,0.28,21.91892079,0.717501105,15.55060986,15.56719551,7.195066316,30.20079208,"Diego Alonso Saldana, Laurie Starck, Pascal Mougin, Bernard Rousseau, Nicolas Ferrando, and Benoit Creton. Prediction of density and viscosity of biofuel compounds using machine learning methods. Energy & fuels, 26(4):2416-2426, 2012."