Index,Name,CANON_SMILES,Temperature (K),Inverse temperature (1/K),Viscosity (cP),log(Viscosity),MD_density,MD_FV,MD_Rg,MD_SP_E,MD_SP_V,MD_SP,MD_HV,MD_RMSD,Reference
64,hydrogen cyanide,C#N,278.15,0.003595182,0.232,-0.634512015,0.978750605,0.0,24.81656436,34.66523233,19.12588445,39.59152652,10.89737287,15.27635644,"WE Wasburn. International critical tables of numerical data, physics, chemistry and technology. 1st electronic edition. Knovel: Norwich, NY, 2003."
65,hydrogen cyanide,C#N,283.95,0.003521747,0.218,-0.661543506,0.973873614,0.0,24.88361386,34.49895565,19.11074909,39.43895977,10.88080841,18.56962376,"WE Wasburn. International critical tables of numerical data, physics, chemistry and technology. 1st electronic edition. Knovel: Norwich, NY, 2003."
66,hydrogen cyanide,C#N,288.25,0.003469211,0.211,-0.675717545,0.971687485,0.0,24.87669307,34.32670909,17.84344055,38.68741756,10.52213067,17.99087129,"WE Wasburn. International critical tables of numerical data, physics, chemistry and technology. 1st electronic edition. Knovel: Norwich, NY, 2003."
67,hydrogen cyanide,C#N,293.35,0.003408897,0.201,-0.696803943,0.96847049,0.0,24.92963366,34.57679558,19.12416286,39.51364035,10.99646285,20.55667327,"WE Wasburn. International critical tables of numerical data, physics, chemistry and technology. 1st electronic edition. Knovel: Norwich, NY, 2003."
68,trans-crotonaldehyde,C/C=C/C=O,298.15,0.003354016,0.52,-0.283996656,0.846469785,0.12,23.21190099,11.61933213,18.12484363,21.52956393,9.765867336,32.19489109,"Valentin Goussard, Francois Duprat, Jean-Luc Ploix, G erard Dreyfus, Veronique Nardello-Rataj, and Jean-Marie Aubry. A new machine-learning tool for fast estimation of liquid viscosity. application to cosmetic oils. Journal of Chemical Information and Modeling, 60(4):2012-2023, 2020."
69,isoeugenol,C/C=C/c1ccc(O)c(OC)c1,298.15,0.003354016,2.68,0.428134794,1.060737397,0.02,22.05751485,9.474638813,19.06729185,21.29187401,17.36559006,29.48646535,"WE Wasburn. International critical tables of numerical data, physics, chemistry and technology. 1st electronic edition. Knovel: Norwich, NY, 2003."
70,isosafrol,C/C=C/c1ccc2c(c1)OCO2,298.15,0.003354016,4.0,0.602059991,1.130060289,0.01,22.13368317,7.988688499,20.15332189,21.6790877,16.71407233,29.84141584,"WE Wasburn. International critical tables of numerical data, physics, chemistry and technology. 1st electronic edition. Knovel: Norwich, NY, 2003."
71,cis-2-pentene,C/C=C\CC,293.1,0.003411805,0.21,-0.677780705,0.643180578,0.61,22.94369307,1.408043348,14.37197577,14.44096644,6.017473376,31.69338614,"Diego Alonso Saldana, Laurie Starck, Pascal Mougin, Bernard Rousseau, Nicolas Ferrando, and Benoit Creton. Prediction of density and viscosity of biofuel compounds using machine learning methods. Energy & fuels, 26(4):2416-2426, 2012."
72,cis-2-pentene,C/C=C\CC,298.1,0.003354579,0.2,-0.698970004,0.643040599,0.72,22.95139604,1.418084978,14.3549833,14.42507237,6.016635758,31.75945545,"Diego Alonso Saldana, Laurie Starck, Pascal Mougin, Bernard Rousseau, Nicolas Ferrando, and Benoit Creton. Prediction of density and viscosity of biofuel compounds using machine learning methods. Energy & fuels, 26(4):2416-2426, 2012."
73,cis-2-pentene,C/C=C\CC,303.1,0.003299241,0.19,-0.721246399,0.634256404,0.7,23.05618812,1.350516013,14.11832858,14.18299047,5.918666906,31.87935644,"Diego Alonso Saldana, Laurie Starck, Pascal Mougin, Bernard Rousseau, Nicolas Ferrando, and Benoit Creton. Prediction of density and viscosity of biofuel compounds using machine learning methods. Energy & fuels, 26(4):2416-2426, 2012."
74,cis-2-pentene,C/C=C\CC,308.1,0.003245699,0.18,-0.744727495,0.635171027,0.67,23.03259406,1.351067096,14.13464128,14.19931278,5.933172493,31.86211881,"Diego Alonso Saldana, Laurie Starck, Pascal Mougin, Bernard Rousseau, Nicolas Ferrando, and Benoit Creton. Prediction of density and viscosity of biofuel compounds using machine learning methods. Energy & fuels, 26(4):2416-2426, 2012."
75,Dicyclopentadiene,C1=CC2C3C=CC(C3)C2C1,294.2611111,0.003398342,0.736,-0.133122186,0.999685224,0.02,21.53433663,2.755135719,18.73800509,18.93965212,11.92281454,29.43675248,"Sunghwan Kim, Paul A Thiessen, Tiejun Cheng, Jian Zhang, Asta Gindulyte, and Evan E Bolton. Pug-view: programmatic access to chemical annotations integrated in pubchem. Journal of cheminformatics, 11(1):1-11, 2019."
76,"1,3,5,7-cyclooctatetraene",C1=CC=CC=CC=C1,293.1,0.003411805,1.37,0.136720567,0.95599517,0.04,22.44461386,5.626467309,19.09348325,19.90541975,10.89965484,30.98619802,"Diego Alonso Saldana, Laurie Starck, Pascal Mougin, Bernard Rousseau, Nicolas Ferrando, and Benoit Creton. Prediction of density and viscosity of biofuel compounds using machine learning methods. Energy & fuels, 26(4):2416-2426, 2012."
77,"1,3,5,7-cyclooctatetraene",C1=CC=CC=CC=C1,298.1,0.003354579,1.25,0.096910013,0.948471549,0.05,22.50354455,5.542286904,18.90689233,19.70268527,10.78066831,31.0019505,"Diego Alonso Saldana, Laurie Starck, Pascal Mougin, Bernard Rousseau, Nicolas Ferrando, and Benoit Creton. Prediction of density and viscosity of biofuel compounds using machine learning methods. Energy & fuels, 26(4):2416-2426, 2012."
78,"1,3,5,7-cyclooctatetraene",C1=CC=CC=CC=C1,303.1,0.003299241,1.15,0.06069784,0.945143319,0.06,22.5350396,5.479877464,18.8084709,19.5907173,10.71062492,31.14328713,"Diego Alonso Saldana, Laurie Starck, Pascal Mougin, Bernard Rousseau, Nicolas Ferrando, and Benoit Creton. Prediction of density and viscosity of biofuel compounds using machine learning methods. Energy & fuels, 26(4):2416-2426, 2012."
79,"1,3,5,7-cyclooctatetraene",C1=CC=CC=CC=C1,313.1,0.003193868,0.98,-0.008773924,0.934370459,0.07,22.61736634,5.312505244,18.55019557,19.29611176,10.5418217,31.24238614,"Diego Alonso Saldana, Laurie Starck, Pascal Mougin, Bernard Rousseau, Nicolas Ferrando, and Benoit Creton. Prediction of density and viscosity of biofuel compounds using machine learning methods. Energy & fuels, 26(4):2416-2426, 2012."
80,"1,3,5,7-cyclooctatetraene",C1=CC=CC=CC=C1,323.1,0.003095017,0.83,-0.080921908,0.929737568,0.04,22.65276238,5.225147718,18.40509636,19.13261653,10.44291398,31.25492079,"Diego Alonso Saldana, Laurie Starck, Pascal Mougin, Bernard Rousseau, Nicolas Ferrando, and Benoit Creton. Prediction of density and viscosity of biofuel compounds using machine learning methods. Energy & fuels, 26(4):2416-2426, 2012."
81,"1,3,5,7-cyclooctatetraene",C1=CC=CC=CC=C1,333.1,0.003002101,0.72,-0.142667504,0.913574042,0.1,22.78470297,5.016363041,18.02252001,18.70788933,10.1982669,31.46980198,"Diego Alonso Saldana, Laurie Starck, Pascal Mougin, Bernard Rousseau, Nicolas Ferrando, and Benoit Creton. Prediction of density and viscosity of biofuel compounds using machine learning methods. Energy & fuels, 26(4):2416-2426, 2012."
82,"1,3,5,7-cyclooctatetraene",C1=CC=CC=CC=C1,343.1,0.002914602,0.64,-0.193820026,0.904962244,0.13,22.85553465,4.890436338,17.80631805,18.46594182,10.06148221,31.55010891,"Diego Alonso Saldana, Laurie Starck, Pascal Mougin, Bernard Rousseau, Nicolas Ferrando, and Benoit Creton. Prediction of density and viscosity of biofuel compounds using machine learning methods. Energy & fuels, 26(4):2416-2426, 2012."
83,"1,3,5,7-cyclooctatetraene",C1=CC=CC=CC=C1,353.1,0.002832059,0.57,-0.244125144,0.904876395,0.15,22.85539604,4.861210708,17.77067096,18.42381668,10.0395084,31.46410891,"Diego Alonso Saldana, Laurie Starck, Pascal Mougin, Bernard Rousseau, Nicolas Ferrando, and Benoit Creton. Prediction of density and viscosity of biofuel compounds using machine learning methods. Energy & fuels, 26(4):2416-2426, 2012."
84,cyclopentadiene,C1=CCC=C1,285.1,0.003507541,0.36,-0.443697499,0.83118657,0.12,22.91343564,4.85066531,17.56534584,18.22301269,6.878599908,31.75234653,"Diego Alonso Saldana, Laurie Starck, Pascal Mougin, Bernard Rousseau, Nicolas Ferrando, and Benoit Creton. Prediction of density and viscosity of biofuel compounds using machine learning methods. Energy & fuels, 26(4):2416-2426, 2012."
85,cyclopentene,C1=CCCC1,286.6,0.003489184,0.43,-0.366531544,0.764059434,0.29,22.50809901,2.111646018,16.41937388,16.55482761,6.409324537,31.07859406,"Diego Alonso Saldana, Laurie Starck, Pascal Mougin, Bernard Rousseau, Nicolas Ferrando, and Benoit Creton. Prediction of density and viscosity of biofuel compounds using machine learning methods. Energy & fuels, 26(4):2416-2426, 2012."
86,cyclopentene,C1=CCCC1,288.1,0.003471017,0.36,-0.443697499,0.764121211,0.23,22.50526733,2.101039289,16.41002823,16.5442425,6.40436296,31.065,"Diego Alonso Saldana, Laurie Starck, Pascal Mougin, Bernard Rousseau, Nicolas Ferrando, and Benoit Creton. Prediction of density and viscosity of biofuel compounds using machine learning methods. Energy & fuels, 26(4):2416-2426, 2012."
87,cyclopentene,C1=CCCC1,298.15,0.003354016,0.23,-0.638272164,0.759975953,0.33,22.53982178,2.071936706,16.28420477,16.41573394,6.365410648,31.1460495,"Valentin Goussard, Francois Duprat, Jean-Luc Ploix, G erard Dreyfus, Veronique Nardello-Rataj, and Jean-Marie Aubry. A new machine-learning tool for fast estimation of liquid viscosity. application to cosmetic oils. Journal of Chemical Information and Modeling, 60(4):2012-2023, 2020."
88,cyclohexene,C1=CCCCC1,273.1,0.003661662,0.88,-0.055517328,0.814123649,0.06,21.87777228,1.910197966,17.28754101,17.3929332,7.838088727,30.21134653,"Diego Alonso Saldana, Laurie Starck, Pascal Mougin, Bernard Rousseau, Nicolas Ferrando, and Benoit Creton. Prediction of density and viscosity of biofuel compounds using machine learning methods. Energy & fuels, 26(4):2416-2426, 2012."
89,cyclohexene,C1=CCCCC1,283.1,0.003532321,0.76,-0.119186408,0.802299375,0.2,21.98370297,1.857572994,16.96409599,17.06574895,7.689595681,30.32571287,"Diego Alonso Saldana, Laurie Starck, Pascal Mougin, Bernard Rousseau, Nicolas Ferrando, and Benoit Creton. Prediction of density and viscosity of biofuel compounds using machine learning methods. Energy & fuels, 26(4):2416-2426, 2012."
90,cyclohexene,C1=CCCCC1,286.6,0.003489184,0.7,-0.15490196,0.799929013,0.15,22.00972277,1.824658399,16.89434718,16.99289688,7.656760097,30.35141584,"Diego Alonso Saldana, Laurie Starck, Pascal Mougin, Bernard Rousseau, Nicolas Ferrando, and Benoit Creton. Prediction of density and viscosity of biofuel compounds using machine learning methods. Energy & fuels, 26(4):2416-2426, 2012."
91,cyclohexene,C1=CCCCC1,288.1,0.003471017,0.69,-0.161150909,0.800542276,0.18,21.99794059,1.835155784,16.89559959,16.99519924,7.656241838,30.3280297,"Diego Alonso Saldana, Laurie Starck, Pascal Mougin, Bernard Rousseau, Nicolas Ferrando, and Benoit Creton. Prediction of density and viscosity of biofuel compounds using machine learning methods. Energy & fuels, 26(4):2416-2426, 2012."
92,cyclohexene,C1=CCCCC1,291.9,0.003425831,0.69,-0.161150909,0.795598526,0.18,22.04259406,1.79916021,16.76578865,16.86226675,7.596734101,30.41454455,"Diego Alonso Saldana, Laurie Starck, Pascal Mougin, Bernard Rousseau, Nicolas Ferrando, and Benoit Creton. Prediction of density and viscosity of biofuel compounds using machine learning methods. Energy & fuels, 26(4):2416-2426, 2012."
93,cyclohexene,C1=CCCCC1,293.1,0.003411805,0.66,-0.180456065,0.793125769,0.14,22.06761386,1.77961784,16.70700605,16.80183274,7.570637871,30.45461386,"Diego Alonso Saldana, Laurie Starck, Pascal Mougin, Bernard Rousseau, Nicolas Ferrando, and Benoit Creton. Prediction of density and viscosity of biofuel compounds using machine learning methods. Energy & fuels, 26(4):2416-2426, 2012."
94,cyclohexene,C1=CCCCC1,303.1,0.003299241,0.58,-0.236572006,0.787544407,0.15,22.11865347,1.74489532,16.54043941,16.63247378,7.498870607,30.57641584,"Diego Alonso Saldana, Laurie Starck, Pascal Mougin, Bernard Rousseau, Nicolas Ferrando, and Benoit Creton. Prediction of density and viscosity of biofuel compounds using machine learning methods. Energy & fuels, 26(4):2416-2426, 2012."
95,cyclohexene,C1=CCCCC1,313.1,0.003193868,0.51,-0.292429824,0.774581276,0.22,22.24312871,1.712864706,16.19862938,16.28918346,7.347706315,30.67672277,"Diego Alonso Saldana, Laurie Starck, Pascal Mougin, Bernard Rousseau, Nicolas Ferrando, and Benoit Creton. Prediction of density and viscosity of biofuel compounds using machine learning methods. Energy & fuels, 26(4):2416-2426, 2012."
96,cyclohexene,C1=CCCCC1,314.8,0.00317662,0.52,-0.283996656,0.772096177,0.24,22.26576238,1.681551308,16.14068983,16.22833918,7.32242132,30.67257426,"Diego Alonso Saldana, Laurie Starck, Pascal Mougin, Bernard Rousseau, Nicolas Ferrando, and Benoit Creton. Prediction of density and viscosity of biofuel compounds using machine learning methods. Energy & fuels, 26(4):2416-2426, 2012."
97,cyclohexene,C1=CCCCC1,323.1,0.003095017,0.46,-0.337242168,0.764157563,0.28,22.34207921,1.643991197,15.92170683,16.00662812,7.22486849,30.8079604,"Diego Alonso Saldana, Laurie Starck, Pascal Mougin, Bernard Rousseau, Nicolas Ferrando, and Benoit Creton. Prediction of density and viscosity of biofuel compounds using machine learning methods. Energy & fuels, 26(4):2416-2426, 2012."
98,cyclohexene,C1=CCCCC1,333.1,0.003002101,0.4,-0.397940009,0.757192967,0.54,22.40973267,1.615473392,15.71843135,15.80149863,7.136102418,30.85792079,"Diego Alonso Saldana, Laurie Starck, Pascal Mougin, Bernard Rousseau, Nicolas Ferrando, and Benoit Creton. Prediction of density and viscosity of biofuel compounds using machine learning methods. Energy & fuels, 26(4):2416-2426, 2012."
99,cyclohexene,C1=CCCCC1,333.4,0.0029994,0.42,-0.37675071,0.747099329,0.46,22.50889109,1.566161012,15.4853244,15.5646014,7.028894439,30.98511881,"Diego Alonso Saldana, Laurie Starck, Pascal Mougin, Bernard Rousseau, Nicolas Ferrando, and Benoit Creton. Prediction of density and viscosity of biofuel compounds using machine learning methods. Energy & fuels, 26(4):2416-2426, 2012."
100,cyclohexene,C1=CCCCC1,342.9,0.002916302,0.38,-0.420216403,0.730924831,0.61,22.67838614,1.523735251,15.07455259,15.15162198,6.847932819,31.29847525,"Diego Alonso Saldana, Laurie Starck, Pascal Mougin, Bernard Rousseau, Nicolas Ferrando, and Benoit Creton. Prediction of density and viscosity of biofuel compounds using machine learning methods. Energy & fuels, 26(4):2416-2426, 2012."
101,cyclohexene,C1=CCCCC1,352.8,0.002834467,0.35,-0.455931956,0.718618341,0.78,22.79818812,1.496361932,14.76712575,14.84301726,6.720301613,31.44247525,"Diego Alonso Saldana, Laurie Starck, Pascal Mougin, Bernard Rousseau, Nicolas Ferrando, and Benoit Creton. Prediction of density and viscosity of biofuel compounds using machine learning methods. Energy & fuels, 26(4):2416-2426, 2012."
102,cyclohexene,C1=CCCCC1,353.1,0.002832059,0.34,-0.468521083,0.723930136,0.79,22.75020792,1.469714601,14.88212308,14.95484707,6.767124971,31.28565347,"Diego Alonso Saldana, Laurie Starck, Pascal Mougin, Bernard Rousseau, Nicolas Ferrando, and Benoit Creton. Prediction of density and viscosity of biofuel compounds using machine learning methods. Energy & fuels, 26(4):2416-2426, 2012."
103,cyclohexene,C1=CCCCC1,356.9,0.002801905,0.33,-0.48148606,0.719760972,0.99,22.78981188,1.467973245,14.78198907,14.85501471,6.728624651,31.40590099,"Diego Alonso Saldana, Laurie Starck, Pascal Mougin, Bernard Rousseau, Nicolas Ferrando, and Benoit Creton. Prediction of density and viscosity of biofuel compounds using machine learning methods. Energy & fuels, 26(4):2416-2426, 2012."
104,cyclohexene,C1=CCCCC1,373.1,0.002680247,0.28,-0.552841969,0.707864542,1.0,22.93020792,1.442646068,14.45116658,14.5232622,6.591659987,31.58346535,"Diego Alonso Saldana, Laurie Starck, Pascal Mougin, Bernard Rousseau, Nicolas Ferrando, and Benoit Creton. Prediction of density and viscosity of biofuel compounds using machine learning methods. Energy & fuels, 26(4):2416-2426, 2012."
105,cycloheptene,C1=CCCCCC1,286.6,0.003489184,1.24,0.093421685,0.816704444,0.11,21.76992079,1.539916238,16.90770234,16.97783064,8.682115981,29.88940594,"Diego Alonso Saldana, Laurie Starck, Pascal Mougin, Bernard Rousseau, Nicolas Ferrando, and Benoit Creton. Prediction of density and viscosity of biofuel compounds using machine learning methods. Energy & fuels, 26(4):2416-2426, 2012."
106,cyclooctene,C1=CCCCCCC1,286.6,0.003489184,1.8,0.255272505,0.846046968,0.07,21.43032673,1.297599743,17.24244609,17.29136484,9.877441982,29.48821782,"Diego Alonso Saldana, Laurie Starck, Pascal Mougin, Bernard Rousseau, Nicolas Ferrando, and Benoit Creton. Prediction of density and viscosity of biofuel compounds using machine learning methods. Energy & fuels, 26(4):2416-2426, 2012."
107,indene,C1=Cc2ccccc2C1,293.1,0.003411805,1.82,0.260071388,1.017142547,0.02,22.35191089,7.980911056,19.31222579,20.89644798,12.50142841,30.82736634,"Diego Alonso Saldana, Laurie Starck, Pascal Mougin, Bernard Rousseau, Nicolas Ferrando, and Benoit Creton. Prediction of density and viscosity of biofuel compounds using machine learning methods. Energy & fuels, 26(4):2416-2426, 2012."
108,indene,C1=Cc2ccccc2C1,303.1,0.003299241,1.51,0.178976947,1.0045048,0.03,22.44730693,7.774880208,19.00964057,20.53831308,12.26108301,30.97812871,"Diego Alonso Saldana, Laurie Starck, Pascal Mougin, Bernard Rousseau, Nicolas Ferrando, and Benoit Creton. Prediction of density and viscosity of biofuel compounds using machine learning methods. Energy & fuels, 26(4):2416-2426, 2012."
109,Vinylcyclohexene dioxide,C1CC2OC2CC1C1CO1,293.15,0.003411223,7.77,0.890421019,1.043203078,0.03,21.64844554,7.742339929,18.25168811,19.8260791,13.20680031,29.68156436,"Sunghwan Kim, Paul A Thiessen, Tiejun Cheng, Jian Zhang, Asta Gindulyte, and Evan E Bolton. Pug-view: programmatic access to chemical annotations integrated in pubchem. Journal of cheminformatics, 11(1):1-11, 2019."
110,bicyclohexyl,C1CCC(C2CCCCC2)CC1,293.1,0.003411805,3.75,0.574031268,0.869258241,0.06,21.07880198,0.717944218,16.81306853,16.8284176,13.53207457,28.87230693,"Diego Alonso Saldana, Laurie Starck, Pascal Mougin, Bernard Rousseau, Nicolas Ferrando, and Benoit Creton. Prediction of density and viscosity of biofuel compounds using machine learning methods. Energy & fuels, 26(4):2416-2426, 2012."
111,bicyclohexyl,C1CCC(C2CCCCC2)CC1,298.1,0.003354579,3.4,0.531478917,0.865635047,0.07,21.11505941,0.720693355,16.69855277,16.71412571,13.42018513,29.06484158,"Diego Alonso Saldana, Laurie Starck, Pascal Mougin, Bernard Rousseau, Nicolas Ferrando, and Benoit Creton. Prediction of density and viscosity of biofuel compounds using machine learning methods. Energy & fuels, 26(4):2416-2426, 2012."
112,bicyclohexyl,C1CCC(C2CCCCC2)CC1,303.1,0.003299241,3.06,0.485721427,0.86799309,0.16,21.09365347,0.724701132,16.74285056,16.75855814,13.46339472,28.82370297,"Diego Alonso Saldana, Laurie Starck, Pascal Mougin, Bernard Rousseau, Nicolas Ferrando, and Benoit Creton. Prediction of density and viscosity of biofuel compounds using machine learning methods. Energy & fuels, 26(4):2416-2426, 2012."
113,Decahydronaphthalene,C1CCC2CCCCC2C1,294.2611111,0.003398342,1.788,0.252367515,0.870099716,0.06,21.12229703,0.728133514,16.88773087,16.90345083,11.43566663,28.92409901,"Sunghwan Kim, Paul A Thiessen, Tiejun Cheng, Jian Zhang, Asta Gindulyte, and Evan E Bolton. Pug-view: programmatic access to chemical annotations integrated in pubchem. Journal of cheminformatics, 11(1):1-11, 2019."
114,decahydronaphthalene,C1CCC2CCCCC2C1,323.15,0.003094538,1.58,0.198657087,0.838019564,0.25,21.4009604,0.673588843,16.05952823,16.07368282,10.82953171,29.46855446,"WE Wasburn. International critical tables of numerical data, physics, chemistry and technology. 1st electronic edition. Knovel: Norwich, NY, 2003."
115,decahydronaphthalene,C1CCC2CCCCC2C1,348.15,0.002872325,1.08,0.033423755,0.818719961,0.22,21.56138614,0.641794037,15.54855502,15.56181692,10.46579033,29.55354455,"WE Wasburn. International critical tables of numerical data, physics, chemistry and technology. 1st electronic edition. Knovel: Norwich, NY, 2003."