Index,Name,CANON_SMILES,Temperature (K),Inverse temperature (1/K),Viscosity (cP),log(Viscosity),MD_density,MD_FV,MD_Rg,MD_SP_E,MD_SP_V,MD_SP,MD_HV,MD_RMSD,Reference
1399,Methyl oleate,CCCCCCCC/C=C\CCCCCCCC(=O)OC,293.15,0.003411223,4.88,0.688419822,0.872300413,0.06,21.51510891,3.29027195,16.91074384,17.22812523,24.69472008,29.63012871,"A Dean John et al. Lange's handbook of chemistry. In Universitas Of Tennese Knoxville, Fifthenth Edition, Mc. Graw Hill Inc, New York. Conference, 1999."
1400,Heptyl cyclo pentane,CCCCCCCC1CCCC1,298.15,0.003354016,1.72,0.235528447,0.785735358,0.19,21.47949505,0.699481271,15.989795,16.00512187,13.70829121,29.42519802,"Dabir S Viswanath, Tushar K Ghosh, Dasika HL Prasad, Nidamarty VK Dutt, Kalipatnapu Y Rani, Dabir S Viswanath, Tushar K Ghosh, Dasika HL Prasad, Nidamarty VK Dutt, and Kalipatnapu Y Rani. Correlations and estimation of pure liquid viscosity.Viscosity of Liquids: Theory, Estimation, Experiment, and Data, pages 135-405, 2007."
1401,n-Heptyl cyclo hexane,CCCCCCCC1CCCCC1,298.15,0.003354016,2.47,0.392696953,0.79726541,0.14,21.38548515,0.666470255,16.08409432,16.097929,14.75863929,29.25165347,"Dabir S Viswanath, Tushar K Ghosh, Dasika HL Prasad, Nidamarty VK Dutt, Kalipatnapu Y Rani, Dabir S Viswanath, Tushar K Ghosh, Dasika HL Prasad, Nidamarty VK Dutt, and Kalipatnapu Y Rani. Correlations and estimation of pure liquid viscosity.Viscosity of Liquids: Theory, Estimation, Experiment, and Data, pages 135-405, 2007."
1402,n-Otyl bromide,CCCCCCCCBr,293.15,0.003411223,1.63,0.212187604,1.130529565,0.09,22.18440594,4.17600593,17.09025755,17.59322956,13.22034275,30.43372277,"Dabir S Viswanath, Tushar K Ghosh, Dasika HL Prasad, Nidamarty VK Dutt, Kalipatnapu Y Rani, Dabir S Viswanath, Tushar K Ghosh, Dasika HL Prasad, Nidamarty VK Dutt, and Kalipatnapu Y Rani. Correlations and estimation of pure liquid viscosity.Viscosity of Liquids: Theory, Estimation, Experiment, and Data, pages 135-405, 2007."
1403,n-nonane,CCCCCCCCC,295.45,0.003384667,0.624,-0.20481541,0.712648286,0.21,21.76423762,0.605934773,15.26587543,15.27794389,10.62747889,29.87609901,"WE Wasburn. International critical tables of numerical data, physics, chemistry and technology. 1st electronic edition. Knovel: Norwich, NY, 2003."
1404,pelargonie acid,CCCCCCCCC(=O)O,343.15,0.002914177,2.41,0.382017043,0.869435647,0.33,21.84217822,12.15530705,16.35203436,20.37542037,18.74136011,30.10972277,"WE Wasburn. International critical tables of numerical data, physics, chemistry and technology. 1st electronic edition. Knovel: Norwich, NY, 2003."
1405,pelargonie acid,CCCCCCCCC(=O)O,363.15,0.002753683,1.73,0.238046103,0.85624626,0.21,21.94953465,11.80345347,16.03147477,19.90849259,18.2285446,30.23240594,"WE Wasburn. International critical tables of numerical data, physics, chemistry and technology. 1st electronic edition. Knovel: Norwich, NY, 2003."
1406,methyl nonanoate,CCCCCCCCC(=O)OC,298.15,0.003354016,1.5,0.176091259,0.872019175,0.09,21.72587129,4.495857199,16.97418627,17.55971661,15.15118434,29.95231683,"Valentin Goussard, Francois Duprat, Jean-Luc Ploix, G erard Dreyfus, Veronique Nardello-Rataj, and Jean-Marie Aubry. A new machine-learning tool for fast estimation of liquid viscosity. application to cosmetic oils. Journal of Chemical Information and Modeling, 60(4):2012-2023, 2020."
1407,nonanoic acid 1-methyl-hexyl ester,CCCCCCCCC(=O)OC(C)CCCCC,298.15,0.003354016,3.7,0.568201724,0.855124867,0.07,21.51390099,2.656721404,16.53976816,16.75200179,20.70568167,29.60310891,"Valentin Goussard, Francois Duprat, Jean-Luc Ploix, G erard Dreyfus, Veronique Nardello-Rataj, and Jean-Marie Aubry. A new machine-learning tool for fast estimation of liquid viscosity. application to cosmetic oils. Journal of Chemical Information and Modeling, 60(4):2012-2023, 2020."
1408,ethyl pelargonate,CCCCCCCCC(=O)OCC,298.15,0.003354016,1.69,0.227886705,0.868120258,0.06,21.69011881,3.919917815,17.03255627,17.47796325,16.26040395,29.92491089,"WE Wasburn. International critical tables of numerical data, physics, chemistry and technology. 1st electronic edition. Knovel: Norwich, NY, 2003."
1409,ethyl pelargonate,CCCCCCCCC(=O)OCC,323.15,0.003094538,1.11,0.045322979,0.839202203,0.15,21.93149505,3.66869671,16.25866114,16.66773672,15.38210175,30.22370297,"WE Wasburn. International critical tables of numerical data, physics, chemistry and technology. 1st electronic edition. Knovel: Norwich, NY, 2003."
1410,methyl-n-octyl carbinol,CCCCCCCCC(C)O,298.15,0.003354016,10.1,1.004321374,0.821854864,0.1,21.32389109,11.03416998,16.080867,19.50295507,18.10128053,28.72393069,"WE Wasburn. International critical tables of numerical data, physics, chemistry and technology. 1st electronic edition. Knovel: Norwich, NY, 2003."
1411,Octyl cyclo pentane,CCCCCCCCC1CCCC1,298.15,0.003354016,2.15,0.33243846,0.792663022,0.17,21.43350495,0.708201204,16.11440413,16.1299987,14.89774708,29.52175248,"Dabir S Viswanath, Tushar K Ghosh, Dasika HL Prasad, Nidamarty VK Dutt, Kalipatnapu Y Rani, Dabir S Viswanath, Tushar K Ghosh, Dasika HL Prasad, Nidamarty VK Dutt, and Kalipatnapu Y Rani. Correlations and estimation of pure liquid viscosity.Viscosity of Liquids: Theory, Estimation, Experiment, and Data, pages 135-405, 2007."
1412,n-Octyl cyclo hexane,CCCCCCCCC1CCCCC1,298.15,0.003354016,3.1,0.491361694,0.802259728,0.1,21.32520792,0.672988124,16.17161884,16.18564349,15.91903787,29.3869901,"Dabir S Viswanath, Tushar K Ghosh, Dasika HL Prasad, Nidamarty VK Dutt, Kalipatnapu Y Rani, Dabir S Viswanath, Tushar K Ghosh, Dasika HL Prasad, Nidamarty VK Dutt, and Kalipatnapu Y Rani. Correlations and estimation of pure liquid viscosity.Viscosity of Liquids: Theory, Estimation, Experiment, and Data, pages 135-405, 2007."
1413,Oleic acid,CCCCCCCCC=CCCCCCCCC(=O)O,303.15,0.003298697,25.6,1.408239965,0.880791938,0.04,21.45484158,9.57925901,17.00272421,19.51592467,29.79567829,27.83673267,"Sunghwan Kim, Paul A Thiessen, Tiejun Cheng, Jian Zhang, Asta Gindulyte, and Evan E Bolton. Pug-view: programmatic access to chemical annotations integrated in pubchem. Journal of cheminformatics, 11(1):1-11, 2019."
1414,n-Nonyl bromide,CCCCCCCCCBr,293.15,0.003411223,2.05,0.311753861,1.100653734,0.09,22.09837624,3.891705351,16.99419314,17.43432519,14.2558156,30.41980198,"Dabir S Viswanath, Tushar K Ghosh, Dasika HL Prasad, Nidamarty VK Dutt, Kalipatnapu Y Rani, Dabir S Viswanath, Tushar K Ghosh, Dasika HL Prasad, Nidamarty VK Dutt, and Kalipatnapu Y Rani. Correlations and estimation of pure liquid viscosity.Viscosity of Liquids: Theory, Estimation, Experiment, and Data, pages 135-405, 2007."
1415,n-decane,CCCCCCCCCC,240.1,0.004164931,2.76,0.440909082,0.776485015,0.03,21.18526733,0.668660741,17.01840332,17.03157172,13.18126774,29.26617822,"Diego Alonso Saldana, Laurie Starck, Pascal Mougin, Bernard Rousseau, Nicolas Ferrando, and Benoit Creton. Prediction of density and viscosity of biofuel compounds using machine learning methods. Energy & fuels, 26(4):2416-2426, 2012."
1416,n-decane,CCCCCCCCCC,243.1,0.004113534,2.53,0.403120521,0.768991247,0.06,21.25529703,0.659220576,16.81535125,16.8283072,13.00663791,29.46252475,"Diego Alonso Saldana, Laurie Starck, Pascal Mougin, Bernard Rousseau, Nicolas Ferrando, and Benoit Creton. Prediction of density and viscosity of biofuel compounds using machine learning methods. Energy & fuels, 26(4):2416-2426, 2012."
1417,n-decane,CCCCCCCCCC,247.1,0.004046945,2.27,0.356025857,0.775242706,0.04,21.2000099,0.670612487,16.95241611,16.96570746,13.11728424,29.26041584,"Diego Alonso Saldana, Laurie Starck, Pascal Mougin, Bernard Rousseau, Nicolas Ferrando, and Benoit Creton. Prediction of density and viscosity of biofuel compounds using machine learning methods. Energy & fuels, 26(4):2416-2426, 2012."
1418,n-decane,CCCCCCCCCC,253.1,0.003951008,1.94,0.28780173,0.765490968,0.04,21.2819505,0.660660669,16.66270442,16.67584001,12.85683876,29.34336634,"Diego Alonso Saldana, Laurie Starck, Pascal Mougin, Bernard Rousseau, Nicolas Ferrando, and Benoit Creton. Prediction of density and viscosity of biofuel compounds using machine learning methods. Energy & fuels, 26(4):2416-2426, 2012."
1419,n-decane,CCCCCCCCCC,263.1,0.003800836,1.55,0.190331698,0.753883316,0.08,21.39241584,0.649870322,16.31307536,16.32604897,12.54621108,29.47346535,"Diego Alonso Saldana, Laurie Starck, Pascal Mougin, Bernard Rousseau, Nicolas Ferrando, and Benoit Creton. Prediction of density and viscosity of biofuel compounds using machine learning methods. Energy & fuels, 26(4):2416-2426, 2012."
1420,n-decane,CCCCCCCCCC,273.1,0.003661662,1.27,0.103803721,0.741334645,0.11,21.50785149,0.636966844,15.94562228,15.95836888,12.22507632,29.57289109,"Diego Alonso Saldana, Laurie Starck, Pascal Mougin, Bernard Rousseau, Nicolas Ferrando, and Benoit Creton. Prediction of density and viscosity of biofuel compounds using machine learning methods. Energy & fuels, 26(4):2416-2426, 2012."
1421,n-decane,CCCCCCCCCC,283.1,0.003532321,1.08,0.033423755,0.733469343,0.14,21.58178218,0.621340735,15.69667606,15.70900032,12.00411441,29.68168317,"Diego Alonso Saldana, Laurie Starck, Pascal Mougin, Bernard Rousseau, Nicolas Ferrando, and Benoit Creton. Prediction of density and viscosity of biofuel compounds using machine learning methods. Energy & fuels, 26(4):2416-2426, 2012."
1422,n-decane,CCCCCCCCCC,293.0,0.003412969,0.92,-0.036212173,0.725599175,0.21,21.67558416,0.615092807,15.45266222,15.46493566,11.79129567,29.87460396,"Diego Alonso Saldana, Laurie Starck, Pascal Mougin, Bernard Rousseau, Nicolas Ferrando, and Benoit Creton. Prediction of density and viscosity of biofuel compounds using machine learning methods. Energy & fuels, 26(4):2416-2426, 2012."
1423,n-decane,CCCCCCCCCC,293.1,0.003411805,0.91,-0.040958608,0.723611157,0.21,21.69440594,0.612445057,15.40784371,15.42004898,11.75713726,29.86109901,"Diego Alonso Saldana, Laurie Starck, Pascal Mougin, Bernard Rousseau, Nicolas Ferrando, and Benoit Creton. Prediction of density and viscosity of biofuel compounds using machine learning methods. Energy & fuels, 26(4):2416-2426, 2012."
1424,n-decane,CCCCCCCCCC,295.45,0.003384667,0.78,-0.107905397,0.723293023,0.2,21.69258416,0.613284887,15.3970341,15.4092853,11.75113274,29.81832673,"WE Wasburn. International critical tables of numerical data, physics, chemistry and technology. 1st electronic edition. Knovel: Norwich, NY, 2003."
1425,n-decane,CCCCCCCCCC,303.1,0.003299241,0.79,-0.102372909,0.71844385,0.26,21.74275248,0.608996223,15.23367423,15.24587497,11.60457499,29.97611881,"Diego Alonso Saldana, Laurie Starck, Pascal Mougin, Bernard Rousseau, Nicolas Ferrando, and Benoit Creton. Prediction of density and viscosity of biofuel compounds using machine learning methods. Energy & fuels, 26(4):2416-2426, 2012."
1426,n-decane,CCCCCCCCCC,308.1,0.003245699,0.74,-0.13076828,0.710188779,0.26,21.81362376,0.600123679,15.01464546,15.02667906,11.42465511,30.11254455,"Diego Alonso Saldana, Laurie Starck, Pascal Mougin, Bernard Rousseau, Nicolas Ferrando, and Benoit Creton. Prediction of density and viscosity of biofuel compounds using machine learning methods. Energy & fuels, 26(4):2416-2426, 2012."
1427,n-decane,CCCCCCCCCC,312.1,0.003204101,0.7,-0.15490196,0.710646074,0.26,21.82368317,0.598116302,14.99997352,15.01191893,11.40441635,30.01429703,"Diego Alonso Saldana, Laurie Starck, Pascal Mougin, Bernard Rousseau, Nicolas Ferrando, and Benoit Creton. Prediction of density and viscosity of biofuel compounds using machine learning methods. Energy & fuels, 26(4):2416-2426, 2012."
1428,n-decane,CCCCCCCCCC,312.2,0.003203075,0.7,-0.15490196,0.71421261,0.25,21.77822772,0.597429105,15.09699149,15.10884635,11.48976972,30.05728713,"Diego Alonso Saldana, Laurie Starck, Pascal Mougin, Bernard Rousseau, Nicolas Ferrando, and Benoit Creton. Prediction of density and viscosity of biofuel compounds using machine learning methods. Energy & fuels, 26(4):2416-2426, 2012."
1429,n-decane,CCCCCCCCCC,313.1,0.003193868,0.69,-0.161150909,0.709189497,0.35,21.836,0.592570889,14.97221984,14.98399459,11.3884128,30.15281188,"Diego Alonso Saldana, Laurie Starck, Pascal Mougin, Bernard Rousseau, Nicolas Ferrando, and Benoit Creton. Prediction of density and viscosity of biofuel compounds using machine learning methods. Energy & fuels, 26(4):2416-2426, 2012."
1430,n-decane,CCCCCCCCCC,333.3,0.0030003,0.54,-0.26760624,0.697490788,0.45,21.96888119,0.576722978,14.61398713,14.62539722,11.09143138,30.17489109,"Diego Alonso Saldana, Laurie Starck, Pascal Mougin, Bernard Rousseau, Nicolas Ferrando, and Benoit Creton. Prediction of density and viscosity of biofuel compounds using machine learning methods. Energy & fuels, 26(4):2416-2426, 2012."
1431,n-decane,CCCCCCCCCC,352.0,0.002840909,0.45,-0.346787486,0.676954821,0.65,22.17952475,0.554062536,14.03989578,14.05086166,10.61731118,30.58918812,"Diego Alonso Saldana, Laurie Starck, Pascal Mougin, Bernard Rousseau, Nicolas Ferrando, and Benoit Creton. Prediction of density and viscosity of biofuel compounds using machine learning methods. Energy & fuels, 26(4):2416-2426, 2012."
1432,n-decane,CCCCCCCCCC,374.2,0.002672368,0.36,-0.443697499,0.652329725,1.12,22.45587129,0.520783982,13.36906021,13.37923519,10.07543035,30.85330693,"Diego Alonso Saldana, Laurie Starck, Pascal Mougin, Bernard Rousseau, Nicolas Ferrando, and Benoit Creton. Prediction of density and viscosity of biofuel compounds using machine learning methods. Energy & fuels, 26(4):2416-2426, 2012."
1433,n-decane,CCCCCCCCCC,396.5,0.002522068,0.3,-0.522878745,0.625262478,2.13,22.77911881,0.489754354,12.66307802,12.67259908,9.522506095,31.26010891,"Diego Alonso Saldana, Laurie Starck, Pascal Mougin, Bernard Rousseau, Nicolas Ferrando, and Benoit Creton. Prediction of density and viscosity of biofuel compounds using machine learning methods. Energy & fuels, 26(4):2416-2426, 2012."
1434,n-capric acid,CCCCCCCCCC(=O)O,343.15,0.002914177,2.88,0.459392488,0.865985104,0.12,21.77083168,11.65218722,16.33482868,20.06538931,19.82444378,30.02674257,"WE Wasburn. International critical tables of numerical data, physics, chemistry and technology. 1st electronic edition. Knovel: Norwich, NY, 2003."
1435,Methyl decanoate,CCCCCCCCCC(=O)OC,298.15,0.003354016,1.9,0.278753601,0.87485701,0.06,21.62987129,4.308381481,17.0830064,17.61817402,16.39023839,29.92343564,"Valentin Goussard, Francois Duprat, Jean-Luc Ploix, G erard Dreyfus, Veronique Nardello-Rataj, and Jean-Marie Aubry. A new machine-learning tool for fast estimation of liquid viscosity. application to cosmetic oils. Journal of Chemical Information and Modeling, 60(4):2012-2023, 2020."
1436,ethyl decanoate,CCCCCCCCCC(=O)OCC,288.1,0.003471017,2.62,0.418301291,0.874688209,0.06,21.56293069,3.796031126,17.26055247,17.67320345,17.66927353,29.8049901,"Diego Alonso Saldana, Laurie Starck, Pascal Mougin, Bernard Rousseau, Nicolas Ferrando, and Benoit Creton. Prediction of density and viscosity of biofuel compounds using machine learning methods. Energy & fuels, 26(4):2416-2426, 2012."
1437,undecan-2-one,CCCCCCCCCC(C)=O,298.15,0.003354016,1.9,0.278753601,0.826724666,0.09,21.61377228,5.545014163,16.59897965,17.50080457,15.67129988,29.84192079,"Valentin Goussard, Francois Duprat, Jean-Luc Ploix, G erard Dreyfus, Veronique Nardello-Rataj, and Jean-Marie Aubry. A new machine-learning tool for fast estimation of liquid viscosity. application to cosmetic oils. Journal of Chemical Information and Modeling, 60(4):2012-2023, 2020."
1438,2-methylundecane,CCCCCCCCCC(C)C,293.1,0.003411805,1.79,0.252853031,0.744085804,0.16,21.56939604,0.605333699,15.54455014,15.55636473,13.82332176,29.62356436,"Diego Alonso Saldana, Laurie Starck, Pascal Mougin, Bernard Rousseau, Nicolas Ferrando, and Benoit Creton. Prediction of density and viscosity of biofuel compounds using machine learning methods. Energy & fuels, 26(4):2416-2426, 2012."
1439,2-methylundecane,CCCCCCCCCC(C)C,313.1,0.003193868,1.24,0.093421685,0.734047218,0.21,21.66244554,0.60411101,15.21892151,15.230938,13.48847879,29.79515842,"Diego Alonso Saldana, Laurie Starck, Pascal Mougin, Bernard Rousseau, Nicolas Ferrando, and Benoit Creton. Prediction of density and viscosity of biofuel compounds using machine learning methods. Energy & fuels, 26(4):2416-2426, 2012."
1440,2-methylundecane,CCCCCCCCCC(C)C,333.1,0.003002101,0.92,-0.036212173,0.7091642,0.39,21.90678218,0.56505943,14.52724498,14.5382593,12.79592861,30.16581188,"Diego Alonso Saldana, Laurie Starck, Pascal Mougin, Bernard Rousseau, Nicolas Ferrando, and Benoit Creton. Prediction of density and viscosity of biofuel compounds using machine learning methods. Energy & fuels, 26(4):2416-2426, 2012."
1441,2-methylundecane,CCCCCCCCCC(C)C,353.1,0.002832059,0.71,-0.148741651,0.690484585,0.73,22.10217822,0.536726958,14.00482989,14.01514889,12.28325451,30.37443564,"Diego Alonso Saldana, Laurie Starck, Pascal Mougin, Bernard Rousseau, Nicolas Ferrando, and Benoit Creton. Prediction of density and viscosity of biofuel compounds using machine learning methods. Energy & fuels, 26(4):2416-2426, 2012."
1442,"2,4,6-trimethyl-pentadecane",CCCCCCCCCC(C)CC(C)CC(C)C,298.15,0.003354016,4.2,0.62324929,0.780619973,0.12,21.30949505,0.600024332,15.5592803,15.57086965,19.48475926,29.26557426,"Valentin Goussard, Francois Duprat, Jean-Luc Ploix, G erard Dreyfus, Veronique Nardello-Rataj, and Jean-Marie Aubry. A new machine-learning tool for fast estimation of liquid viscosity. application to cosmetic oils. Journal of Chemical Information and Modeling, 60(4):2012-2023, 2020."
1443,methylnonyl carbinol,CCCCCCCCCC(C)O,298.15,0.003354016,12.3,1.089905111,0.827283552,0.09,21.27928713,10.53849811,16.24289204,19.36273554,19.25653799,28.44232673,"WE Wasburn. International critical tables of numerical data, physics, chemistry and technology. 1st electronic edition. Knovel: Norwich, NY, 2003."
1444,butyric acid 1-methyl-decyl ester,CCCCCCCCCC(C)OC(=O)CCC,298.15,0.003354016,3.6,0.556302501,0.851100587,0.12,21.62036634,2.788632428,16.50882518,16.7429405,19.67468188,29.85037624,"Valentin Goussard, Francois Duprat, Jean-Luc Ploix, G erard Dreyfus, Veronique Nardello-Rataj, and Jean-Marie Aubry. A new machine-learning tool for fast estimation of liquid viscosity. application to cosmetic oils. Journal of Chemical Information and Modeling, 60(4):2012-2023, 2020."
1445,pentanoic acid 1-methyl-decyl ester,CCCCCCCCCC(C)OC(=O)CCCC,298.15,0.003354016,3.7,0.568201724,0.855664546,0.1,21.51241584,2.645988274,16.60941228,16.81921568,20.85462202,29.82347525,"Valentin Goussard, Francois Duprat, Jean-Luc Ploix, G erard Dreyfus, Veronique Nardello-Rataj, and Jean-Marie Aubry. A new machine-learning tool for fast estimation of liquid viscosity. application to cosmetic oils. Journal of Chemical Information and Modeling, 60(4):2012-2023, 2020."
1446,heptanoic acid 1-methyl-decyl ester,CCCCCCCCCC(C)OC(=O)CCCCCC,298.15,0.003354016,4.9,0.69019608,0.850464482,0.06,21.48046535,2.43949737,16.48572415,16.66552305,22.79738149,29.09445545,"Valentin Goussard, Francois Duprat, Jean-Luc Ploix, G erard Dreyfus, Veronique Nardello-Rataj, and Jean-Marie Aubry. A new machine-learning tool for fast estimation of liquid viscosity. application to cosmetic oils. Journal of Chemical Information and Modeling, 60(4):2012-2023, 2020."
1447,nonanoic acid 1-methyl-decyl ester,CCCCCCCCCC(C)OC(=O)CCCCCCCC,298.15,0.003354016,6.6,0.819543936,0.855713652,0.08,21.43222772,2.297861433,16.64888199,16.80691991,25.25064409,28.87386139,"Valentin Goussard, Francois Duprat, Jean-Luc Ploix, G erard Dreyfus, Veronique Nardello-Rataj, and Jean-Marie Aubry. A new machine-learning tool for fast estimation of liquid viscosity. application to cosmetic oils. Journal of Chemical Information and Modeling, 60(4):2012-2023, 2020."