Index,Name,CANON_SMILES,Temperature (K),Inverse temperature (1/K),Viscosity (cP),log(Viscosity),MD_density,MD_FV,MD_Rg,MD_SP_E,MD_SP_V,MD_SP,MD_HV,MD_RMSD,Reference
2603,"trans-1,3-dimethylcyclohexane",C[C@@H]1CCC[C@@H](C)C1,288.1,0.003471017,0.66,-0.180456065,0.795128912,0.14,21.38748515,0.633285222,16.16573874,16.17816721,9.400919524,29.42190099,"Diego Alonso Saldana, Laurie Starck, Pascal Mougin, Bernard Rousseau, Nicolas Ferrando, and Benoit Creton. Prediction of density and viscosity of biofuel compounds using machine learning methods. Energy & fuels, 26(4):2416-2426, 2012."
2604,"trans-1,3-dimethylcyclohexane",C[C@@H]1CCC[C@@H](C)C1,293.1,0.003411805,0.63,-0.200659451,0.780011292,0.2,21.52735644,0.608817482,15.78757035,15.79932782,9.165428873,29.47024752,"Diego Alonso Saldana, Laurie Starck, Pascal Mougin, Bernard Rousseau, Nicolas Ferrando, and Benoit Creton. Prediction of density and viscosity of biofuel compounds using machine learning methods. Energy & fuels, 26(4):2416-2426, 2012."
2605,"trans-1,3-dimethylcyclohexane",C[C@@H]1CCC[C@@H](C)C1,303.1,0.003299241,0.56,-0.251811973,0.768887949,0.32,21.6270495,0.598496937,15.48690796,15.4984981,8.981042192,29.68674257,"Diego Alonso Saldana, Laurie Starck, Pascal Mougin, Bernard Rousseau, Nicolas Ferrando, and Benoit Creton. Prediction of density and viscosity of biofuel compounds using machine learning methods. Energy & fuels, 26(4):2416-2426, 2012."
2606,"trans-1,3-dimethylcyclohexane",C[C@@H]1CCC[C@@H](C)C1,313.1,0.003193868,0.5,-0.301029996,0.765137257,0.31,21.66672277,0.595858129,15.36280214,15.37438121,8.907673935,29.62717822,"Diego Alonso Saldana, Laurie Starck, Pascal Mougin, Bernard Rousseau, Nicolas Ferrando, and Benoit Creton. Prediction of density and viscosity of biofuel compounds using machine learning methods. Energy & fuels, 26(4):2416-2426, 2012."
2607,trans-3-methylcyclohexanol,C[C@@H]1CCC[C@@H](O)C1,298.1,0.003354579,25.1,1.399673721,0.912291332,0.05,21.1509901,12.77748459,16.88553926,21.17562168,14.00678503,28.89814851,"Diego Alonso Saldana, Laurie Starck, Pascal Mougin, Bernard Rousseau, Nicolas Ferrando, and Benoit Creton. Prediction of density and viscosity of biofuel compounds using machine learning methods. Energy & fuels, 26(4):2416-2426, 2012."
2608,"cis-1,3-dimethylcyclohexane",C[C@@H]1CCC[C@H](C)C1,273.1,0.003661662,1.2,0.079181246,0.800105134,0.06,21.3419901,0.655842424,16.42608425,16.43920099,9.601605035,29.29607921,"Diego Alonso Saldana, Laurie Starck, Pascal Mougin, Bernard Rousseau, Nicolas Ferrando, and Benoit Creton. Prediction of density and viscosity of biofuel compounds using machine learning methods. Energy & fuels, 26(4):2416-2426, 2012."
2609,"cis-1,3-dimethylcyclohexane",C[C@@H]1CCC[C@H](C)C1,288.1,0.003471017,0.89,-0.050609993,0.779081462,0.14,21.53423762,0.626587205,15.86637889,15.87877808,9.252381787,29.58318812,"Diego Alonso Saldana, Laurie Starck, Pascal Mougin, Bernard Rousseau, Nicolas Ferrando, and Benoit Creton. Prediction of density and viscosity of biofuel compounds using machine learning methods. Energy & fuels, 26(4):2416-2426, 2012."
2610,"cis-1,3-dimethylcyclohexane",C[C@@H]1CCC[C@H](C)C1,293.1,0.003411805,0.87,-0.060480747,0.777983651,0.14,21.54642574,0.623415366,15.83003041,15.84233667,9.234711513,29.72579208,"Diego Alonso Saldana, Laurie Starck, Pascal Mougin, Bernard Rousseau, Nicolas Ferrando, and Benoit Creton. Prediction of density and viscosity of biofuel compounds using machine learning methods. Energy & fuels, 26(4):2416-2426, 2012."
2611,"cis-1,3-dimethylcyclohexane",C[C@@H]1CCC[C@H](C)C1,303.1,0.003299241,0.72,-0.142667504,0.773390911,0.2,21.58819802,0.619269929,15.68742496,15.69967868,9.149920112,29.60182178,"Diego Alonso Saldana, Laurie Starck, Pascal Mougin, Bernard Rousseau, Nicolas Ferrando, and Benoit Creton. Prediction of density and viscosity of biofuel compounds using machine learning methods. Energy & fuels, 26(4):2416-2426, 2012."
2612,"cis-1,3-dimethylcyclohexane",C[C@@H]1CCC[C@H](C)C1,313.1,0.003193868,0.65,-0.187086643,0.757901467,0.36,21.73333663,0.604901482,15.27723961,15.28924534,8.894415589,29.75642574,"Diego Alonso Saldana, Laurie Starck, Pascal Mougin, Bernard Rousseau, Nicolas Ferrando, and Benoit Creton. Prediction of density and viscosity of biofuel compounds using machine learning methods. Energy & fuels, 26(4):2416-2426, 2012."
2613,cis-3-Methylcyclohexanol,C[C@@H]1CCC[C@H](O)C1,298.15,0.003354016,19.7,1.294466226,0.911951505,0.09,21.146,14.41410587,16.67077756,22.03855169,15.12780841,27.19789109,"A Dean John et al. Lange's handbook of chemistry. In Universitas Of Tennese Knoxville, Fifthenth Edition, Mc. Graw Hill Inc, New York. Conference, 1999."
2614,cis-3-Methylcyclohexanol,C[C@@H]1CCC[C@H](O)C1,303.15,0.003298697,17.23,1.236285277,0.909830481,0.05,21.16590099,14.37051366,16.61157191,21.96522798,15.07480117,27.83537624,"A Dean John et al. Lange's handbook of chemistry. In Universitas Of Tennese Knoxville, Fifthenth Edition, Mc. Graw Hill Inc, New York. Conference, 1999."
2615,cis-2-methylcyclohexanol,C[C@H]1CCCC[C@H]1O,298.1,0.003354579,18.08,1.257198426,0.91543178,0.07,21.1199505,11.81487006,17.0204195,20.71973743,13.3913427,28.90610891,"Diego Alonso Saldana, Laurie Starck, Pascal Mougin, Bernard Rousseau, Nicolas Ferrando, and Benoit Creton. Prediction of density and viscosity of biofuel compounds using machine learning methods. Energy & fuels, 26(4):2416-2426, 2012."
2616,cis-2-Methylcyclohexanol,C[C@H]1CCCC[C@H]1O,298.15,0.003354016,18.08,1.257198426,0.912510076,0.04,21.13763366,11.83723659,16.95600776,20.67979965,13.38297173,29.0140099,"A Dean John et al. Lange's handbook of chemistry. In Universitas Of Tennese Knoxville, Fifthenth Edition, Mc. Graw Hill Inc, New York. Conference, 1999."
2617,cis-2-methylcyclohexanol,C[C@H]1CCCC[C@H]1O,303.1,0.003299241,13.6,1.133538908,0.90774521,0.07,21.18336634,11.64650639,16.84126029,20.4766953,13.20869827,29.17613861,"Diego Alonso Saldana, Laurie Starck, Pascal Mougin, Bernard Rousseau, Nicolas Ferrando, and Benoit Creton. Prediction of density and viscosity of biofuel compounds using machine learning methods. Energy & fuels, 26(4):2416-2426, 2012."
2618,cis-2-Methylcyclohexanol,C[C@H]1CCCC[C@H]1O,303.15,0.003298697,13.6,1.133538908,0.912963339,0.11,21.14405941,11.68271278,16.95487111,20.59065847,13.27661739,29.09068317,"A Dean John et al. Lange's handbook of chemistry. In Universitas Of Tennese Knoxville, Fifthenth Edition, Mc. Graw Hill Inc, New York. Conference, 1999."
2619,cis-3-methylcyclohexanol,C[C@H]1CCC[C@@H](O)C1,289.1,0.003459011,26.52,1.42357352,0.926782901,0.04,21.03224752,14.8236495,16.9772431,22.53845751,15.5333523,26.42036634,"Diego Alonso Saldana, Laurie Starck, Pascal Mougin, Bernard Rousseau, Nicolas Ferrando, and Benoit Creton. Prediction of density and viscosity of biofuel compounds using machine learning methods. Energy & fuels, 26(4):2416-2426, 2012."
2620,cis-3-methylcyclohexanol,C[C@H]1CCC[C@@H](O)C1,298.1,0.003354579,19.7,1.294466226,0.923084758,0.04,21.06553465,14.58684457,16.91579625,22.33696039,15.34387493,26.30038614,"Diego Alonso Saldana, Laurie Starck, Pascal Mougin, Bernard Rousseau, Nicolas Ferrando, and Benoit Creton. Prediction of density and viscosity of biofuel compounds using machine learning methods. Energy & fuels, 26(4):2416-2426, 2012."
2621,trans-3-Methylcyclohexanol,C[C@H]1CCC[C@H](O)C1,289.15,0.003458413,25.62,1.408579125,0.919692407,0.04,21.09058416,13.14114298,17.03835748,21.51794584,14.31472305,28.03088119,"A Dean John et al. Lange's handbook of chemistry. In Universitas Of Tennese Knoxville, Fifthenth Edition, Mc. Graw Hill Inc, New York. Conference, 1999."
2622,trans-3-Methylcyclohexanol,C[C@H]1CCC[C@H](O)C1,303.15,0.003298697,15.6,1.193124598,0.906474978,0.08,21.1960396,12.6862438,16.74304912,21.00698084,13.88872142,29.01578218,"A Dean John et al. Lange's handbook of chemistry. In Universitas Of Tennese Knoxville, Fifthenth Edition, Mc. Graw Hill Inc, New York. Conference, 1999."
2623,"cis-1,4-dimethylcyclohexane",C[C@H]1CC[C@@H](C)CC1,273.1,0.003661662,1.22,0.086359831,0.807166935,0.09,21.28172277,0.650835326,16.49433205,16.50719399,9.596783691,29.15328713,"Diego Alonso Saldana, Laurie Starck, Pascal Mougin, Bernard Rousseau, Nicolas Ferrando, and Benoit Creton. Prediction of density and viscosity of biofuel compounds using machine learning methods. Energy & fuels, 26(4):2416-2426, 2012."
2624,"cis-1,4-dimethylcyclohexane",C[C@H]1CC[C@@H](C)CC1,288.1,0.003471017,0.93,-0.031517051,0.787813726,0.14,21.45830693,0.62701462,15.97581473,15.98814324,9.274814612,29.53915842,"Diego Alonso Saldana, Laurie Starck, Pascal Mougin, Bernard Rousseau, Nicolas Ferrando, and Benoit Creton. Prediction of density and viscosity of biofuel compounds using machine learning methods. Energy & fuels, 26(4):2416-2426, 2012."
2625,"cis-1,4-dimethylcyclohexane",C[C@H]1CC[C@@H](C)CC1,293.1,0.003411805,0.88,-0.055517328,0.779581414,0.19,21.52429703,0.621902959,15.75529038,15.76758295,9.135687342,29.60513861,"Diego Alonso Saldana, Laurie Starck, Pascal Mougin, Bernard Rousseau, Nicolas Ferrando, and Benoit Creton. Prediction of density and viscosity of biofuel compounds using machine learning methods. Energy & fuels, 26(4):2416-2426, 2012."
2626,"cis-1,4-dimethylcyclohexane",C[C@H]1CC[C@@H](C)CC1,303.1,0.003299241,0.75,-0.124938737,0.769733546,0.25,21.61710891,0.608774028,15.48346457,15.49545228,8.968556759,29.69415842,"Diego Alonso Saldana, Laurie Starck, Pascal Mougin, Bernard Rousseau, Nicolas Ferrando, and Benoit Creton. Prediction of density and viscosity of biofuel compounds using machine learning methods. Energy & fuels, 26(4):2416-2426, 2012."
2627,"cis-1,4-dimethylcyclohexane",C[C@H]1CC[C@@H](C)CC1,313.1,0.003193868,0.66,-0.180456065,0.761421961,0.31,21.6949505,0.59298029,15.2486748,15.26023062,8.824931134,29.73645545,"Diego Alonso Saldana, Laurie Starck, Pascal Mougin, Bernard Rousseau, Nicolas Ferrando, and Benoit Creton. Prediction of density and viscosity of biofuel compounds using machine learning methods. Energy & fuels, 26(4):2416-2426, 2012."
2628,cis-4-methylcyclohexanol,C[C@H]1CC[C@@H](O)CC1,298.1,0.003354579,24.7,1.392696953,0.924918669,0.03,21.0530099,12.67747438,17.18849573,21.35846478,14.05310947,28.32322772,"Diego Alonso Saldana, Laurie Starck, Pascal Mougin, Bernard Rousseau, Nicolas Ferrando, and Benoit Creton. Prediction of density and viscosity of biofuel compounds using machine learning methods. Energy & fuels, 26(4):2416-2426, 2012."
2629,"trans-1,4-dimethylcyclohexane",C[C@H]1CC[C@H](C)CC1,273.1,0.003661662,0.95,-0.022276395,0.796664396,0.11,21.37543564,0.693020907,16.31893626,16.33366853,9.524292385,29.3190099,"Diego Alonso Saldana, Laurie Starck, Pascal Mougin, Bernard Rousseau, Nicolas Ferrando, and Benoit Creton. Prediction of density and viscosity of biofuel compounds using machine learning methods. Energy & fuels, 26(4):2416-2426, 2012."
2630,"trans-1,4-dimethylcyclohexane",C[C@H]1CC[C@H](C)CC1,288.1,0.003471017,0.75,-0.124938737,0.777021559,0.2,21.55150495,0.66206894,15.79263031,15.80652859,9.196368664,29.59285149,"Diego Alonso Saldana, Laurie Starck, Pascal Mougin, Bernard Rousseau, Nicolas Ferrando, and Benoit Creton. Prediction of density and viscosity of biofuel compounds using machine learning methods. Energy & fuels, 26(4):2416-2426, 2012."
2631,"trans-1,4-dimethylcyclohexane",C[C@H]1CC[C@H](C)CC1,293.1,0.003411805,0.71,-0.148741651,0.778024564,0.12,21.53834653,0.661233816,15.79723235,15.8110915,9.200162637,29.5580396,"Diego Alonso Saldana, Laurie Starck, Pascal Mougin, Bernard Rousseau, Nicolas Ferrando, and Benoit Creton. Prediction of density and viscosity of biofuel compounds using machine learning methods. Energy & fuels, 26(4):2416-2426, 2012."
2632,"trans-1,4-dimethylcyclohexane",C[C@H]1CC[C@H](C)CC1,303.1,0.003299241,0.61,-0.214670165,0.759573932,0.26,21.71126733,0.628553948,15.31933484,15.33224641,8.9028115,29.79048515,"Diego Alonso Saldana, Laurie Starck, Pascal Mougin, Bernard Rousseau, Nicolas Ferrando, and Benoit Creton. Prediction of density and viscosity of biofuel compounds using machine learning methods. Energy & fuels, 26(4):2416-2426, 2012."
2633,"trans-1,4-dimethylcyclohexane",C[C@H]1CC[C@H](C)CC1,313.1,0.003193868,0.55,-0.259637311,0.755409216,0.35,21.75265347,0.624960809,15.19094373,15.20382382,8.829215187,29.89092079,"Diego Alonso Saldana, Laurie Starck, Pascal Mougin, Bernard Rousseau, Nicolas Ferrando, and Benoit Creton. Prediction of density and viscosity of biofuel compounds using machine learning methods. Energy & fuels, 26(4):2416-2426, 2012."
2634,Nitromethane,C[N+](=O)[O-],288.15,0.003470415,0.692,-0.159893906,1.112081399,0.03,23.5269802,16.81738916,18.3906297,24.92072985,8.719769423,32.74915842,"A Dean John et al. Lange's handbook of chemistry. In Universitas Of Tennese Knoxville, Fifthenth Edition, Mc. Graw Hill Inc, New York. Conference, 1999."
2635,Nitromethane,C[N+](=O)[O-],303.15,0.003298697,0.596,-0.22475374,1.085323862,0.08,23.72371287,16.39358117,17.87866766,24.25693361,8.511634311,32.88853465,"A Dean John et al. Lange's handbook of chemistry. In Universitas Of Tennese Knoxville, Fifthenth Edition, Mc. Graw Hill Inc, New York. Conference, 1999."
2636,nitromethane,C[N+](=O)[O-],313.15,0.003193358,0.526,-0.279014256,1.077382752,0.1,23.77448515,16.23433136,17.69775836,24.01598593,8.432312739,33.03626733,"WE Wasburn. International critical tables of numerical data, physics, chemistry and technology. 1st electronic edition. Knovel: Norwich, NY, 2003."
2637,nitromethane,C[N+](=O)[O-],328.15,0.003047387,0.45,-0.346787486,1.044874272,0.22,24.0190297,15.73313057,17.08758118,23.22757162,8.185052565,33.42247525,"WE Wasburn. International critical tables of numerical data, physics, chemistry and technology. 1st electronic edition. Knovel: Norwich, NY, 2003."
2638,nitromethane,C[N+](=O)[O-],343.15,0.002914177,0.392,-0.406713933,1.025100412,0.22,24.16969307,15.42145972,16.70758839,22.73693345,8.039217365,33.64420792,"WE Wasburn. International critical tables of numerical data, physics, chemistry and technology. 1st electronic edition. Knovel: Norwich, NY, 2003."
2639,nitromethane,C[N+](=O)[O-],358.15,0.002792126,0.342,-0.465973894,1.005219585,0.34,24.33049505,15.09408367,16.3158836,22.22708057,7.88183092,33.79229703,"WE Wasburn. International critical tables of numerical data, physics, chemistry and technology. 1st electronic edition. Knovel: Norwich, NY, 2003."
2640,Tetramethylsilane,C[Si](C)(C)C,298.15,0.003354016,0.23,-0.638272164,0.627543444,1.61,23.95440594,0.301600697,11.81044636,11.81439663,5.282593433,33.00944554,"Valentin Goussard, Francois Duprat, Jean-Luc Ploix, G erard Dreyfus, Veronique Nardello-Rataj, and Jean-Marie Aubry. A new machine-learning tool for fast estimation of liquid viscosity. application to cosmetic oils. Journal of Chemical Information and Modeling, 60(4):2012-2023, 2020."
2641,"2,2,4,4,6,6-hexamethyl-3-oxa-2,4,6-trisila-heptane",C[Si](C)(C)C[Si](C)(C)O[Si](C)(C)C,298.15,0.003354016,1.1,0.041392685,0.812921256,0.42,23.11235644,0.480981617,12.59014741,12.59968352,11.54058192,31.65332673,"Valentin Goussard, Francois Duprat, Jean-Luc Ploix, G erard Dreyfus, Veronique Nardello-Rataj, and Jean-Marie Aubry. A new machine-learning tool for fast estimation of liquid viscosity. application to cosmetic oils. Journal of Chemical Information and Modeling, 60(4):2012-2023, 2020."
2642," 2,2,4,4,6,6,8,8,10,10,12,12-dodecamethyl-5,7,9-trioxa-2,4,6,8,10,12-hexasila-tridecane",C[Si](C)(C)C[Si](C)(C)O[Si](C)(C)O[Si](C)(C)O[Si](C)(C)C[Si](C)(C)C,298.15,0.003354016,3.5,0.544068044,0.88545618,0.36,22.92980198,0.489286315,12.3703067,12.38031136,19.41904788,31.04583168,"Valentin Goussard, Francois Duprat, Jean-Luc Ploix, G erard Dreyfus, Veronique Nardello-Rataj, and Jean-Marie Aubry. A new machine-learning tool for fast estimation of liquid viscosity. application to cosmetic oils. Journal of Chemical Information and Modeling, 60(4):2012-2023, 2020."
2643,"2,2,4,4,6,6,8,8,10,10,12,12,14,14-tetradecamethyl-5,7,9,11-tetraoxa-2,4,6,8,10,12,14-heptasila-pentadecane",C[Si](C)(C)C[Si](C)(C)O[Si](C)(C)O[Si](C)(C)O[Si](C)(C)O[Si](C)(C)C[Si](C)(C)C,298.15,0.003354016,4.4,0.643452677,0.902312303,0.28,22.93586139,0.501380566,12.3380885,12.34864094,21.96826348,31.31787129,"Valentin Goussard, Francois Duprat, Jean-Luc Ploix, G erard Dreyfus, Veronique Nardello-Rataj, and Jean-Marie Aubry. A new machine-learning tool for fast estimation of liquid viscosity. application to cosmetic oils. Journal of Chemical Information and Modeling, 60(4):2012-2023, 2020."
2644,"1,1,1,3,3,3-hexamethyldisiloxane",C[Si](C)(C)O[Si](C)(C)C,298.15,0.003354016,0.49,-0.30980392,0.758169824,0.96,23.63080198,0.550899596,12.28121142,12.29399743,8.329297974,32.35607921,"Valentin Goussard, Francois Duprat, Jean-Luc Ploix, G erard Dreyfus, Veronique Nardello-Rataj, and Jean-Marie Aubry. A new machine-learning tool for fast estimation of liquid viscosity. application to cosmetic oils. Journal of Chemical Information and Modeling, 60(4):2012-2023, 2020."
2645,octamethyltrisiloxane,C[Si](C)(C)O[Si](C)(C)O[Si](C)(C)C,298.15,0.003354016,0.85,-0.070581074,0.824137503,0.47,23.47109901,0.61815193,12.44096109,12.45680274,11.23682394,32.15990099,"Valentin Goussard, Francois Duprat, Jean-Luc Ploix, G erard Dreyfus, Veronique Nardello-Rataj, and Jean-Marie Aubry. A new machine-learning tool for fast estimation of liquid viscosity. application to cosmetic oils. Journal of Chemical Information and Modeling, 60(4):2012-2023, 2020."
2646,Decamethyltetrasiloxane,C[Si](C)(C)O[Si](C)(C)O[Si](C)(C)O[Si](C)(C)C,293.15,0.003411223,1.28,0.10720997,0.845823956,0.7,23.53991089,0.600362774,12.14448179,12.15967524,13.56331071,32.16849505,"A Dean John et al. Lange's handbook of chemistry. In Universitas Of Tennese Knoxville, Fifthenth Edition, Mc. Graw Hill Inc, New York. Conference, 1999."
2647,dodecamethylpentasiloxane,C[Si](C)(C)O[Si](C)(C)O[Si](C)(C)O[Si](C)(C)O[Si](C)(C)C,298.15,0.003354016,1.8,0.255272505,0.874416918,0.59,23.43380198,0.59649511,12.17013501,12.18517792,16.21107787,31.99425743,"Valentin Goussard, Francois Duprat, Jean-Luc Ploix, G erard Dreyfus, Veronique Nardello-Rataj, and Jean-Marie Aubry. A new machine-learning tool for fast estimation of liquid viscosity. application to cosmetic oils. Journal of Chemical Information and Modeling, 60(4):2012-2023, 2020."
2648,tetradecamethylhexasiloxane,C[Si](C)(C)O[Si](C)(C)O[Si](C)(C)O[Si](C)(C)O[Si](C)(C)O[Si](C)(C)C,298.15,0.003354016,2.4,0.380211242,0.883521224,0.46,23.47038614,0.602120338,11.97335039,11.98894217,18.43966848,31.97730693,"Valentin Goussard, Francois Duprat, Jean-Luc Ploix, G erard Dreyfus, Veronique Nardello-Rataj, and Jean-Marie Aubry. A new machine-learning tool for fast estimation of liquid viscosity. application to cosmetic oils. Journal of Chemical Information and Modeling, 60(4):2012-2023, 2020."
2649,"1,1,1,3,5,5,5-heptamethyl-3-trimethylsilanyloxy-trisiloxane",C[Si](C)(C)O[Si](C)(O[Si](C)(C)C)O[Si](C)(C)C,298.15,0.003354016,1.4,0.146128036,0.840387187,0.65,23.58960396,0.634302928,11.94328782,11.9605418,13.23281996,32.16128713,"Valentin Goussard, Francois Duprat, Jean-Luc Ploix, G erard Dreyfus, Veronique Nardello-Rataj, and Jean-Marie Aubry. A new machine-learning tool for fast estimation of liquid viscosity. application to cosmetic oils. Journal of Chemical Information and Modeling, 60(4):2012-2023, 2020."
2650,hexamethyl-cyclotrisiloxane,C[Si]1(C)O[Si](C)(C)O[Si](C)(C)O1,298.15,0.003354016,0.93,-0.031517051,1.015029154,0.31,22.98972277,0.854215897,14.69433532,14.71963775,11.9421915,31.53815842,"Valentin Goussard, Francois Duprat, Jean-Luc Ploix, G erard Dreyfus, Veronique Nardello-Rataj, and Jean-Marie Aubry. A new machine-learning tool for fast estimation of liquid viscosity. application to cosmetic oils. Journal of Chemical Information and Modeling, 60(4):2012-2023, 2020."