Index,Name,CANON_SMILES,Temperature (K),Inverse temperature (1/K),Viscosity (cP),log(Viscosity),MD_density,MD_FV,MD_Rg,MD_SP_E,MD_SP_V,MD_SP,MD_HV,MD_RMSD,Reference
1641,Tetra decyl benzene,CCCCCCCCCCCCCCc1ccccc1,298.15,0.003354016,6.6,0.819543936,0.852533064,0.06,21.51493069,1.95989557,16.95305693,17.06624701,23.00556816,29.63417822,"Dabir S Viswanath, Tushar K Ghosh, Dasika HL Prasad, Nidamarty VK Dutt, Kalipatnapu Y Rani, Dabir S Viswanath, Tushar K Ghosh, Dasika HL Prasad, Nidamarty VK Dutt, and Kalipatnapu Y Rani. Correlations and estimation of pure liquid viscosity.Viscosity of Liquids: Theory, Estimation, Experiment, and Data, pages 135-405, 2007."
1642,Tridecyl benzene,CCCCCCCCCCCCCc1ccccc1,298.15,0.003354016,5.63,0.750508395,0.852725314,0.07,21.51342574,2.049773584,16.9361251,17.0600047,21.83984251,29.97665347,"Dabir S Viswanath, Tushar K Ghosh, Dasika HL Prasad, Nidamarty VK Dutt, Kalipatnapu Y Rani, Dabir S Viswanath, Tushar K Ghosh, Dasika HL Prasad, Nidamarty VK Dutt, and Kalipatnapu Y Rani. Correlations and estimation of pure liquid viscosity.Viscosity of Liquids: Theory, Estimation, Experiment, and Data, pages 135-405, 2007."
1643,Tridecylbenzene,CCCCCCCCCCCCCc1ccccc1,300.0,0.003333333,5.2958,0.723931575,0.853515379,0.04,21.51079208,2.041031468,16.95154856,17.07426991,21.8594,29.44594059,"Sunghwan Kim, Paul A Thiessen, Tiejun Cheng, Jian Zhang, Asta Gindulyte, and Evan E Bolton. Pug-view: programmatic access to chemical annotations integrated in pubchem. Journal of cheminformatics, 11(1):1-11, 2019."
1644,1-dodecanol,CCCCCCCCCCCCO,293.15,0.003411223,18.8,1.274157849,0.831789984,0.07,21.23579208,10.76750697,16.39029204,19.61116653,21.17487536,27.55337624,"Sunghwan Kim, Paul A Thiessen, Tiejun Cheng, Jian Zhang, Asta Gindulyte, and Evan E Bolton. Pug-view: programmatic access to chemical annotations integrated in pubchem. Journal of cheminformatics, 11(1):1-11, 2019."
1645,Dodecyl benzene,CCCCCCCCCCCCc1ccccc1,298.15,0.003354016,4.78,0.679427897,0.85870962,0.05,21.50639604,2.153763722,17.07366933,17.20926271,20.90638594,29.79519802,"Dabir S Viswanath, Tushar K Ghosh, Dasika HL Prasad, Nidamarty VK Dutt, Kalipatnapu Y Rani, Dabir S Viswanath, Tushar K Ghosh, Dasika HL Prasad, Nidamarty VK Dutt, and Kalipatnapu Y Rani. Correlations and estimation of pure liquid viscosity.Viscosity of Liquids: Theory, Estimation, Experiment, and Data, pages 135-405, 2007."
1646,1-undecanol,CCCCCCCCCCCO,293.15,0.003411223,17.2,1.235528447,0.82940856,0.09,21.26652475,11.19505543,16.30516212,19.77884514,20.00741132,27.84544554,"Sunghwan Kim, Paul A Thiessen, Tiejun Cheng, Jian Zhang, Asta Gindulyte, and Evan E Bolton. Pug-view: programmatic access to chemical annotations integrated in pubchem. Journal of cheminformatics, 11(1):1-11, 2019."
1647,1-undecanol,CCCCCCCCCCCO,298.1,0.003354579,9.1,0.959041392,0.815522295,0.13,21.38215842,10.97528071,15.96056052,19.3704598,19.54065825,28.61035644,"Diego Alonso Saldana, Laurie Starck, Pascal Mougin, Bernard Rousseau, Nicolas Ferrando, and Benoit Creton. Prediction of density and viscosity of biofuel compounds using machine learning methods. Energy & fuels, 26(4):2416-2426, 2012."
1648,Undecyl benzene,CCCCCCCCCCCc1ccccc1,298.15,0.003354016,4.0,0.602059991,0.85627887,0.09,21.55891089,2.239079645,16.99279221,17.1399638,19.65009474,29.89045545,"Dabir S Viswanath, Tushar K Ghosh, Dasika HL Prasad, Nidamarty VK Dutt, Kalipatnapu Y Rani, Dabir S Viswanath, Tushar K Ghosh, Dasika HL Prasad, Nidamarty VK Dutt, and Kalipatnapu Y Rani. Correlations and estimation of pure liquid viscosity.Viscosity of Liquids: Theory, Estimation, Experiment, and Data, pages 135-405, 2007."
1649,decyl ethanoate,CCCCCCCCCCOC(C)=O,293.1,0.003411805,2.73,0.436162647,0.874959562,0.07,21.55845545,3.822320827,17.18030551,17.60059183,17.53375626,29.91417822,"Diego Alonso Saldana, Laurie Starck, Pascal Mougin, Bernard Rousseau, Nicolas Ferrando, and Benoit Creton. Prediction of density and viscosity of biofuel compounds using machine learning methods. Energy & fuels, 26(4):2416-2426, 2012."
1650,decyl ethanoate,CCCCCCCCCCOC(C)=O,308.1,0.003245699,2.06,0.31386722,0.855359472,0.15,21.72247525,3.665583594,16.65784851,17.05669385,16.89692492,30.00038614,"Diego Alonso Saldana, Laurie Starck, Pascal Mougin, Bernard Rousseau, Nicolas Ferrando, and Benoit Creton. Prediction of density and viscosity of biofuel compounds using machine learning methods. Energy & fuels, 26(4):2416-2426, 2012."
1651,decyl ethanoate,CCCCCCCCCCOC(C)=O,311.0,0.003215434,1.91,0.281033367,0.849706091,0.12,21.77711881,3.619473662,16.5160701,16.90827827,16.7269634,30.14977228,"Diego Alonso Saldana, Laurie Starck, Pascal Mougin, Bernard Rousseau, Nicolas Ferrando, and Benoit Creton. Prediction of density and viscosity of biofuel compounds using machine learning methods. Energy & fuels, 26(4):2416-2426, 2012."
1652,decyl ethanoate,CCCCCCCCCCOC(C)=O,323.1,0.003095017,1.57,0.195899652,0.849808137,0.18,21.77053465,3.579079349,16.47840938,16.86287185,16.66267844,30.05785149,"Diego Alonso Saldana, Laurie Starck, Pascal Mougin, Bernard Rousseau, Nicolas Ferrando, and Benoit Creton. Prediction of density and viscosity of biofuel compounds using machine learning methods. Energy & fuels, 26(4):2416-2426, 2012."
1653,decyl ethanoate,CCCCCCCCCCOC(C)=O,338.1,0.002957705,1.24,0.093421685,0.835461827,0.18,21.90307921,3.452492118,16.08854695,16.45513079,16.18905531,30.17723762,"Diego Alonso Saldana, Laurie Starck, Pascal Mougin, Bernard Rousseau, Nicolas Ferrando, and Benoit Creton. Prediction of density and viscosity of biofuel compounds using machine learning methods. Energy & fuels, 26(4):2416-2426, 2012."
1654,decyl ethanoate,CCCCCCCCCCOC(C)=O,353.1,0.002832059,1.0,0.0,0.818448615,0.3,22.04941584,3.31427424,15.64849222,15.99592467,15.66974426,30.3790198,"Diego Alonso Saldana, Laurie Starck, Pascal Mougin, Bernard Rousseau, Nicolas Ferrando, and Benoit Creton. Prediction of density and viscosity of biofuel compounds using machine learning methods. Energy & fuels, 26(4):2416-2426, 2012."
1655,decyl ethanoate,CCCCCCCCCCOC(C)=O,368.1,0.002716653,0.81,-0.091514981,0.813268789,0.21,22.09621782,3.261972601,15.47841197,15.8186926,15.46293345,30.3690297,"Diego Alonso Saldana, Laurie Starck, Pascal Mougin, Bernard Rousseau, Nicolas Ferrando, and Benoit Creton. Prediction of density and viscosity of biofuel compounds using machine learning methods. Energy & fuels, 26(4):2416-2426, 2012."
1656,decyl ethanoate,CCCCCCCCCCOC(C)=O,372.0,0.002688172,0.78,-0.107905397,0.804776752,0.39,22.17131683,3.198648361,15.27371828,15.6054645,15.22747422,30.4040099,"Diego Alonso Saldana, Laurie Starck, Pascal Mougin, Bernard Rousseau, Nicolas Ferrando, and Benoit Creton. Prediction of density and viscosity of biofuel compounds using machine learning methods. Energy & fuels, 26(4):2416-2426, 2012."
1657,decyl ethanoate,CCCCCCCCCCOC(C)=O,394.1,0.002537427,0.61,-0.214670165,0.78212236,0.64,22.38137624,3.037006402,14.70495035,15.01572356,14.58566723,30.85766337,"Diego Alonso Saldana, Laurie Starck, Pascal Mougin, Bernard Rousseau, Nicolas Ferrando, and Benoit Creton. Prediction of density and viscosity of biofuel compounds using machine learning methods. Energy & fuels, 26(4):2416-2426, 2012."
1658,Decylbenzene,CCCCCCCCCCc1ccccc1,253.15,0.003950227,15.327,1.185457157,0.886413715,0.03,21.37590099,2.589963683,17.90351463,18.09007859,19.77263754,27.67542574,"Sunghwan Kim, Paul A Thiessen, Tiejun Cheng, Jian Zhang, Asta Gindulyte, and Evan E Bolton. Pug-view: programmatic access to chemical annotations integrated in pubchem. Journal of cheminformatics, 11(1):1-11, 2019."
1659,n-decylbenzene,CCCCCCCCCCc1ccccc1,303.1,0.003299241,2.58,0.411619706,0.851050652,0.07,21.6640198,2.324608022,16.8462184,17.00613904,18.33948266,29.89940594,"Diego Alonso Saldana, Laurie Starck, Pascal Mougin, Bernard Rousseau, Nicolas Ferrando, and Benoit Creton. Prediction of density and viscosity of biofuel compounds using machine learning methods. Energy & fuels, 26(4):2416-2426, 2012."
1660,n-decylbenzene,CCCCCCCCCCc1ccccc1,313.1,0.003193868,2.12,0.326335861,0.828317901,0.13,21.8619802,2.202345387,16.27745663,16.42607203,17.62415839,30.19430693,"Diego Alonso Saldana, Laurie Starck, Pascal Mougin, Bernard Rousseau, Nicolas Ferrando, and Benoit Creton. Prediction of density and viscosity of biofuel compounds using machine learning methods. Energy & fuels, 26(4):2416-2426, 2012."
1661,n-decylbenzene,CCCCCCCCCCc1ccccc1,333.1,0.003002101,1.52,0.181843588,0.82088786,0.22,21.92382178,2.154133197,16.01560358,16.160158,17.26683722,30.21359406,"Diego Alonso Saldana, Laurie Starck, Pascal Mougin, Bernard Rousseau, Nicolas Ferrando, and Benoit Creton. Prediction of density and viscosity of biofuel compounds using machine learning methods. Energy & fuels, 26(4):2416-2426, 2012."
1662,n-decylbenzene,CCCCCCCCCCc1ccccc1,353.1,0.002832059,1.14,0.056904851,0.809004155,0.22,22.02963366,2.054736546,15.67785131,15.81225038,16.83282958,30.4059703,"Diego Alonso Saldana, Laurie Starck, Pascal Mougin, Bernard Rousseau, Nicolas Ferrando, and Benoit Creton. Prediction of density and viscosity of biofuel compounds using machine learning methods. Energy & fuels, 26(4):2416-2426, 2012."
1663,n-decylbenzene,CCCCCCCCCCc1ccccc1,373.1,0.002680247,0.93,-0.031517051,0.787021265,0.5,22.23829703,1.935113068,15.10717968,15.23096667,16.1264871,30.70281188,"Diego Alonso Saldana, Laurie Starck, Pascal Mougin, Bernard Rousseau, Nicolas Ferrando, and Benoit Creton. Prediction of density and viscosity of biofuel compounds using machine learning methods. Energy & fuels, 26(4):2416-2426, 2012."
1664,nonyl ethanoate,CCCCCCCCCOC(C)=O,293.1,0.003411805,1.75,0.243038049,0.870393834,0.11,21.66748515,4.002848691,17.03822456,17.50244382,16.25327474,29.85105941,"Diego Alonso Saldana, Laurie Starck, Pascal Mougin, Bernard Rousseau, Nicolas Ferrando, and Benoit Creton. Prediction of density and viscosity of biofuel compounds using machine learning methods. Energy & fuels, 26(4):2416-2426, 2012."
1665,nonyl ethanoate,CCCCCCCCCOC(C)=O,310.9,0.003216468,1.21,0.08278537,0.855570176,0.15,21.79485149,3.852093638,16.6204114,17.06124425,15.76653694,30.06188119,"Diego Alonso Saldana, Laurie Starck, Pascal Mougin, Bernard Rousseau, Nicolas Ferrando, and Benoit Creton. Prediction of density and viscosity of biofuel compounds using machine learning methods. Energy & fuels, 26(4):2416-2426, 2012."
1666,nonyl ethanoate,CCCCCCCCCOC(C)=O,372.0,0.002688172,0.51,-0.292429824,0.802079032,0.47,22.27164356,3.383899051,15.1939366,15.56650175,14.19090161,30.61385149,"Diego Alonso Saldana, Laurie Starck, Pascal Mougin, Bernard Rousseau, Nicolas Ferrando, and Benoit Creton. Prediction of density and viscosity of biofuel compounds using machine learning methods. Energy & fuels, 26(4):2416-2426, 2012."
1667,nonyl ethanoate,CCCCCCCCCOC(C)=O,394.3,0.00253614,0.41,-0.387216143,0.780048247,0.73,22.47008911,3.2121111,14.63764823,14.98628719,13.60326502,30.96679208,"Diego Alonso Saldana, Laurie Starck, Pascal Mougin, Bernard Rousseau, Nicolas Ferrando, and Benoit Creton. Prediction of density and viscosity of biofuel compounds using machine learning methods. Energy & fuels, 26(4):2416-2426, 2012."
1668,n-nonylbenzene,CCCCCCCCCc1ccccc1,253.1,0.003951008,12.2,1.086359831,0.894854935,0.01,21.37326733,2.799372115,18.07225498,18.28799299,18.75770961,27.82836634,"Diego Alonso Saldana, Laurie Starck, Pascal Mougin, Bernard Rousseau, Nicolas Ferrando, and Benoit Creton. Prediction of density and viscosity of biofuel compounds using machine learning methods. Energy & fuels, 26(4):2416-2426, 2012."
1669,n-nonylbenzene,CCCCCCCCCc1ccccc1,258.1,0.003874467,9.5,0.977723605,0.888820402,0.02,21.41679208,2.762326582,17.9232902,18.13513958,18.58563307,28.85789109,"Diego Alonso Saldana, Laurie Starck, Pascal Mougin, Bernard Rousseau, Nicolas Ferrando, and Benoit Creton. Prediction of density and viscosity of biofuel compounds using machine learning methods. Energy & fuels, 26(4):2416-2426, 2012."
1670,n-nonylbenzene,CCCCCCCCCc1ccccc1,263.1,0.003800836,7.66,0.88422877,0.879464366,0.02,21.50323762,2.679706949,17.65943459,17.86185379,18.24151788,28.78246535,"Diego Alonso Saldana, Laurie Starck, Pascal Mougin, Bernard Rousseau, Nicolas Ferrando, and Benoit Creton. Prediction of density and viscosity of biofuel compounds using machine learning methods. Energy & fuels, 26(4):2416-2426, 2012."
1671,n-nonylbenzene,CCCCCCCCCc1ccccc1,268.1,0.003729952,6.35,0.802773725,0.877080817,0.05,21.5210396,2.649961005,17.58682125,17.7855599,18.14813713,29.28070297,"Diego Alonso Saldana, Laurie Starck, Pascal Mougin, Bernard Rousseau, Nicolas Ferrando, and Benoit Creton. Prediction of density and viscosity of biofuel compounds using machine learning methods. Energy & fuels, 26(4):2416-2426, 2012."
1672,n-nonylbenzene,CCCCCCCCCc1ccccc1,273.1,0.003661662,5.36,0.72916479,0.869779105,0.04,21.5740396,2.597059547,17.39414126,17.58719058,17.91193627,29.65713861,"Diego Alonso Saldana, Laurie Starck, Pascal Mougin, Bernard Rousseau, Nicolas Ferrando, and Benoit Creton. Prediction of density and viscosity of biofuel compounds using machine learning methods. Energy & fuels, 26(4):2416-2426, 2012."
1673,n-nonylbenzene,CCCCCCCCCc1ccccc1,278.1,0.003595829,4.61,0.663700925,0.867267552,0.05,21.59538614,2.576683,17.31306608,17.504004,17.80776841,29.73218812,"Diego Alonso Saldana, Laurie Starck, Pascal Mougin, Bernard Rousseau, Nicolas Ferrando, and Benoit Creton. Prediction of density and viscosity of biofuel compounds using machine learning methods. Energy & fuels, 26(4):2416-2426, 2012."
1674,n-nonylbenzene,CCCCCCCCCc1ccccc1,283.1,0.003532321,4.02,0.604226053,0.862844776,0.05,21.63692079,2.568344352,17.1836445,17.37481072,17.65107693,29.6550099,"Diego Alonso Saldana, Laurie Starck, Pascal Mougin, Bernard Rousseau, Nicolas Ferrando, and Benoit Creton. Prediction of density and viscosity of biofuel compounds using machine learning methods. Energy & fuels, 26(4):2416-2426, 2012."
1675,n-nonylbenzene,CCCCCCCCCc1ccccc1,288.1,0.003471017,3.53,0.547774705,0.863002254,0.06,21.63072277,2.529826049,17.16072729,17.34639782,17.60206848,29.94817822,"Diego Alonso Saldana, Laurie Starck, Pascal Mougin, Bernard Rousseau, Nicolas Ferrando, and Benoit Creton. Prediction of density and viscosity of biofuel compounds using machine learning methods. Energy & fuels, 26(4):2416-2426, 2012."
1676,n-nonylbenzene,CCCCCCCCCc1ccccc1,293.1,0.003411805,3.18,0.50242712,0.855389745,0.07,21.69869307,2.488145937,16.9711186,17.1528247,17.38224983,29.91225743,"Diego Alonso Saldana, Laurie Starck, Pascal Mougin, Bernard Rousseau, Nicolas Ferrando, and Benoit Creton. Prediction of density and viscosity of biofuel compounds using machine learning methods. Energy & fuels, 26(4):2416-2426, 2012."
1677,n-nonylbenzene,CCCCCCCCCc1ccccc1,298.1,0.003354579,2.8,0.447158031,0.861385702,0.06,21.63747525,2.496032416,17.0833814,17.26497701,17.49411745,29.79666337,"Diego Alonso Saldana, Laurie Starck, Pascal Mougin, Bernard Rousseau, Nicolas Ferrando, and Benoit Creton. Prediction of density and viscosity of biofuel compounds using machine learning methods. Energy & fuels, 26(4):2416-2426, 2012."
1678,Nonyl benzene,CCCCCCCCCc1ccccc1,298.15,0.003354016,2.8,0.447158031,0.858176016,0.05,21.67227723,2.498154402,17.02659342,17.2091639,17.44791068,29.85642574,"Dabir S Viswanath, Tushar K Ghosh, Dasika HL Prasad, Nidamarty VK Dutt, Kalipatnapu Y Rani, Dabir S Viswanath, Tushar K Ghosh, Dasika HL Prasad, Nidamarty VK Dutt, and Kalipatnapu Y Rani. Correlations and estimation of pure liquid viscosity.Viscosity of Liquids: Theory, Estimation, Experiment, and Data, pages 135-405, 2007."
1679,n-nonylbenzene,CCCCCCCCCc1ccccc1,303.1,0.003299241,2.53,0.403120521,0.846954239,0.07,21.77247525,2.443545274,16.73403242,16.91171219,17.09579034,29.98413861,"Diego Alonso Saldana, Laurie Starck, Pascal Mougin, Bernard Rousseau, Nicolas Ferrando, and Benoit Creton. Prediction of density and viscosity of biofuel compounds using machine learning methods. Energy & fuels, 26(4):2416-2426, 2012."
1680,n-nonylbenzene,CCCCCCCCCc1ccccc1,308.1,0.003245699,2.29,0.359835482,0.845886359,0.13,21.77965347,2.427791581,16.69058738,16.86643593,17.03823077,29.95523762,"Diego Alonso Saldana, Laurie Starck, Pascal Mougin, Bernard Rousseau, Nicolas Ferrando, and Benoit Creton. Prediction of density and viscosity of biofuel compounds using machine learning methods. Energy & fuels, 26(4):2416-2426, 2012."
1681,n-nonylbenzene,CCCCCCCCCc1ccccc1,310.9,0.003216468,2.07,0.315970346,0.842095614,0.16,21.80814851,2.389310836,16.5849851,16.75657708,16.90353161,29.82939604,"Diego Alonso Saldana, Laurie Starck, Pascal Mougin, Bernard Rousseau, Nicolas Ferrando, and Benoit Creton. Prediction of density and viscosity of biofuel compounds using machine learning methods. Energy & fuels, 26(4):2416-2426, 2012."
1682,n-nonylbenzene,CCCCCCCCCc1ccccc1,313.1,0.003193868,2.08,0.318063335,0.842992059,0.09,21.80190099,2.390378605,16.59054613,16.76214731,16.90139885,29.98319802,"Diego Alonso Saldana, Laurie Starck, Pascal Mougin, Bernard Rousseau, Nicolas Ferrando, and Benoit Creton. Prediction of density and viscosity of biofuel compounds using machine learning methods. Energy & fuels, 26(4):2416-2426, 2012."
1683,n-nonylbenzene,CCCCCCCCCc1ccccc1,318.1,0.003143666,1.9,0.278753601,0.831612481,0.2,21.89831683,2.323616898,16.31999893,16.48486689,16.59263236,30.19593069,"Diego Alonso Saldana, Laurie Starck, Pascal Mougin, Bernard Rousseau, Nicolas Ferrando, and Benoit Creton. Prediction of density and viscosity of biofuel compounds using machine learning methods. Energy & fuels, 26(4):2416-2426, 2012."
1684,n-nonylbenzene,CCCCCCCCCc1ccccc1,323.1,0.003095017,1.75,0.243038049,0.828367331,0.17,21.93788119,2.313415891,16.21995425,16.38438701,16.4703879,30.25230693,"Diego Alonso Saldana, Laurie Starck, Pascal Mougin, Bernard Rousseau, Nicolas Ferrando, and Benoit Creton. Prediction of density and viscosity of biofuel compounds using machine learning methods. Energy & fuels, 26(4):2416-2426, 2012."
1685,n-nonylbenzene,CCCCCCCCCc1ccccc1,328.1,0.003047851,1.6,0.204119983,0.83218956,0.15,21.8930495,2.317701895,16.29049975,16.45484867,16.54341532,30.13926733,"Diego Alonso Saldana, Laurie Starck, Pascal Mougin, Bernard Rousseau, Nicolas Ferrando, and Benoit Creton. Prediction of density and viscosity of biofuel compounds using machine learning methods. Energy & fuels, 26(4):2416-2426, 2012."
1686,n-nonylbenzene,CCCCCCCCCc1ccccc1,333.1,0.003002101,1.44,0.158362492,0.824177865,0.21,21.96075248,2.274364906,16.08822607,16.24846275,16.30787338,30.25749505,"Diego Alonso Saldana, Laurie Starck, Pascal Mougin, Bernard Rousseau, Nicolas Ferrando, and Benoit Creton. Prediction of density and viscosity of biofuel compounds using machine learning methods. Energy & fuels, 26(4):2416-2426, 2012."
1687,n-nonylbenzene,CCCCCCCCCc1ccccc1,338.1,0.002957705,1.37,0.136720567,0.819684487,0.24,22.00528713,2.252237753,15.96506823,16.12341702,16.16233629,30.37341584,"Diego Alonso Saldana, Laurie Starck, Pascal Mougin, Bernard Rousseau, Nicolas Ferrando, and Benoit Creton. Prediction of density and viscosity of biofuel compounds using machine learning methods. Energy & fuels, 26(4):2416-2426, 2012."
1688,n-nonylbenzene,CCCCCCCCCc1ccccc1,343.1,0.002914602,1.29,0.11058971,0.818408853,0.2,22.023,2.235668784,15.92405003,16.08051667,16.11398299,30.19039604,"Diego Alonso Saldana, Laurie Starck, Pascal Mougin, Bernard Rousseau, Nicolas Ferrando, and Benoit Creton. Prediction of density and viscosity of biofuel compounds using machine learning methods. Energy & fuels, 26(4):2416-2426, 2012."