Index,Name,CANON_SMILES,Temperature (K),Inverse temperature (1/K),Viscosity (cP),log(Viscosity),MD_density,MD_FV,MD_Rg,MD_SP_E,MD_SP_V,MD_SP,MD_HV,MD_RMSD,Reference
1892,Dibutyl o-phthalate,CCCCOC(=O)c1ccccc1C(=O)OCCCC,318.15,0.003143171,7.85,0.894869657,1.030587919,0.04,22.04050495,6.192144212,18.08171234,19.11274369,24.21302672,28.55893069,"A Dean John et al. Lange's handbook of chemistry. In Universitas Of Tennese Knoxville, Fifthenth Edition, Mc. Graw Hill Inc, New York. Conference, 1999."
1893,di-n-butyl phthalate,CCCCOC(=O)c1ccccc1C(=O)OCCCC,328.2,0.003046923,6.05,0.781755375,1.03182042,0.05,22.03058416,6.131768978,18.07064345,19.08285002,24.13121809,29.0030297,"Diego Alonso Saldana, Laurie Starck, Pascal Mougin, Bernard Rousseau, Nicolas Ferrando, and Benoit Creton. Prediction of density and viscosity of biofuel compounds using machine learning methods. Energy & fuels, 26(4):2416-2426, 2012."
1894,di-n-butyl phthalate,CCCCOC(=O)c1ccccc1C(=O)OCCCC,333.1,0.003002101,5.1,0.707570176,1.019778695,0.04,22.1239505,6.031882408,17.80412666,18.79832971,23.71509704,29.24643564,"Diego Alonso Saldana, Laurie Starck, Pascal Mougin, Bernard Rousseau, Nicolas Ferrando, and Benoit Creton. Prediction of density and viscosity of biofuel compounds using machine learning methods. Energy & fuels, 26(4):2416-2426, 2012."
1895,di-n-butyl phthalate,CCCCOC(=O)c1ccccc1C(=O)OCCCC,342.2,0.002922268,4.21,0.624282096,1.012904462,0.1,22.16261386,5.941459865,17.63183996,18.60616921,23.41751164,30.02651485,"Diego Alonso Saldana, Laurie Starck, Pascal Mougin, Bernard Rousseau, Nicolas Ferrando, and Benoit Creton. Prediction of density and viscosity of biofuel compounds using machine learning methods. Energy & fuels, 26(4):2416-2426, 2012."
1896,di-n-butyl phthalate,CCCCOC(=O)c1ccccc1C(=O)OCCCC,353.1,0.002832059,2.82,0.450249108,1.005470289,0.07,22.2240198,5.8440593,17.44515362,18.39825755,23.09832207,30.4200297,"Diego Alonso Saldana, Laurie Starck, Pascal Mougin, Bernard Rousseau, Nicolas Ferrando, and Benoit Creton. Prediction of density and viscosity of biofuel compounds using machine learning methods. Energy & fuels, 26(4):2416-2426, 2012."
1897,di-n-butyl phthalate,CCCCOC(=O)c1ccccc1C(=O)OCCCC,370.1,0.002701972,2.29,0.359835482,0.984774692,0.16,22.38034653,5.659187664,16.9819617,17.90029959,22.38168405,30.76781188,"Diego Alonso Saldana, Laurie Starck, Pascal Mougin, Bernard Rousseau, Nicolas Ferrando, and Benoit Creton. Prediction of density and viscosity of biofuel compounds using machine learning methods. Energy & fuels, 26(4):2416-2426, 2012."
1898,butyl ethanoate,CCCCOC(C)=O,288.1,0.003471017,0.77,-0.113509275,0.901065635,0.07,22.03248515,5.911412066,17.43909642,18.41394171,11.01979227,30.42306931,"Diego Alonso Saldana, Laurie Starck, Pascal Mougin, Bernard Rousseau, Nicolas Ferrando, and Benoit Creton. Prediction of density and viscosity of biofuel compounds using machine learning methods. Energy & fuels, 26(4):2416-2426, 2012."
1899,butyl ethanoate,CCCCOC(C)=O,293.1,0.003411805,0.73,-0.13667714,0.894419813,0.07,22.09092079,5.836925418,17.28037323,18.23973272,10.90913412,30.49079208,"Diego Alonso Saldana, Laurie Starck, Pascal Mougin, Bernard Rousseau, Nicolas Ferrando, and Benoit Creton. Prediction of density and viscosity of biofuel compounds using machine learning methods. Energy & fuels, 26(4):2416-2426, 2012."
1900,butyl ethanoate,CCCCOC(C)=O,298.1,0.003354579,0.68,-0.167491087,0.885304711,0.12,22.16470297,5.763068261,17.06701294,18.01394187,10.76868871,30.60223762,"Diego Alonso Saldana, Laurie Starck, Pascal Mougin, Bernard Rousseau, Nicolas Ferrando, and Benoit Creton. Prediction of density and viscosity of biofuel compounds using machine learning methods. Energy & fuels, 26(4):2416-2426, 2012."
1901,butyl ethanoate,CCCCOC(C)=O,303.1,0.003299241,0.63,-0.200659451,0.8837271,0.14,22.18138614,5.726003651,17.00960983,17.94772068,10.72197895,30.59641584,"Diego Alonso Saldana, Laurie Starck, Pascal Mougin, Bernard Rousseau, Nicolas Ferrando, and Benoit Creton. Prediction of density and viscosity of biofuel compounds using machine learning methods. Energy & fuels, 26(4):2416-2426, 2012."
1902,butyl ethanoate,CCCCOC(C)=O,308.1,0.003245699,0.59,-0.229147988,0.87577225,0.12,22.24461386,5.642582815,16.82143655,17.74275317,10.59193273,30.66946535,"Diego Alonso Saldana, Laurie Starck, Pascal Mougin, Bernard Rousseau, Nicolas Ferrando, and Benoit Creton. Prediction of density and viscosity of biofuel compounds using machine learning methods. Energy & fuels, 26(4):2416-2426, 2012."
1903,butyl ethanoate,CCCCOC(C)=O,313.1,0.003193868,0.56,-0.251811973,0.868325101,0.17,22.31387129,5.577851598,16.63011115,17.54076905,10.45961179,30.82822772,"Diego Alonso Saldana, Laurie Starck, Pascal Mougin, Bernard Rousseau, Nicolas Ferrando, and Benoit Creton. Prediction of density and viscosity of biofuel compounds using machine learning methods. Energy & fuels, 26(4):2416-2426, 2012."
1904,butyl ethanoate,CCCCOC(C)=O,318.1,0.003143666,0.52,-0.283996656,0.872852899,0.14,22.27564356,5.592994409,16.72304932,17.63372817,10.52250895,30.7039604,"Diego Alonso Saldana, Laurie Starck, Pascal Mougin, Bernard Rousseau, Nicolas Ferrando, and Benoit Creton. Prediction of density and viscosity of biofuel compounds using machine learning methods. Energy & fuels, 26(4):2416-2426, 2012."
1905,butyl ethanoate,CCCCOC(C)=O,323.1,0.003095017,0.51,-0.292429824,0.869843826,0.16,22.29778218,5.534042156,16.63343502,17.53004501,10.4503127,30.85540594,"Diego Alonso Saldana, Laurie Starck, Pascal Mougin, Bernard Rousseau, Nicolas Ferrando, and Benoit Creton. Prediction of density and viscosity of biofuel compounds using machine learning methods. Energy & fuels, 26(4):2416-2426, 2012."
1906,butyl ethanoate,CCCCOC(C)=O,333.1,0.003002101,0.44,-0.356547324,0.852701584,0.2,22.4410396,5.373150518,16.24030877,17.1063421,10.18954821,30.99955446,"Diego Alonso Saldana, Laurie Starck, Pascal Mougin, Bernard Rousseau, Nicolas Ferrando, and Benoit Creton. Prediction of density and viscosity of biofuel compounds using machine learning methods. Energy & fuels, 26(4):2416-2426, 2012."
1907,butyl ethanoate,CCCCOC(C)=O,343.1,0.002914602,0.41,-0.387216143,0.84909898,0.26,22.48409901,5.311320689,16.11879785,16.97153773,10.09961329,31.03180198,"Diego Alonso Saldana, Laurie Starck, Pascal Mougin, Bernard Rousseau, Nicolas Ferrando, and Benoit Creton. Prediction of density and viscosity of biofuel compounds using machine learning methods. Energy & fuels, 26(4):2416-2426, 2012."
1908,Dipropylene glycol butyl ether,CCCCOC(C)COC(C)CO,298.15,0.003354016,4.23,0.626340367,0.916551041,0.05,21.45474257,10.49447006,16.27281448,19.36402196,19.19830688,29.12646535,"A Dean John et al. Lange's handbook of chemistry. In Universitas Of Tennese Knoxville, Fifthenth Edition, Mc. Graw Hill Inc, New York. Conference, 1999."
1909,Tripropylene glycol butyl ether,CCCCOC(C)COC(C)COC(C)CO,298.15,0.003354016,6.58,0.818225894,0.936242869,0.05,21.39554455,9.40152386,16.24685888,18.77180878,22.93468047,27.81954455,"A Dean John et al. Lange's handbook of chemistry. In Universitas Of Tennese Knoxville, Fifthenth Edition, Mc. Graw Hill Inc, New York. Conference, 1999."
1910,"1,1-Dibutoxyethane ",CCCCOC(C)OCCCC,298.15,0.003354016,1.2,0.079181246,0.826033106,0.25,21.77483168,3.183420325,15.66225735,15.98290883,13.47442407,30.01818812,"Valentin Goussard, Francois Duprat, Jean-Luc Ploix, G erard Dreyfus, Veronique Nardello-Rataj, and Jean-Marie Aubry. A new machine-learning tool for fast estimation of liquid viscosity. application to cosmetic oils. Journal of Chemical Information and Modeling, 60(4):2012-2023, 2020."
1911,butyl methanoate,CCCCOC=O,289.5,0.003454231,0.72,-0.142667504,0.88450305,0.09,22.4340495,5.636667795,17.20338986,18.10344478,9.620068817,30.97033663,"Diego Alonso Saldana, Laurie Starck, Pascal Mougin, Bernard Rousseau, Nicolas Ferrando, and Benoit Creton. Prediction of density and viscosity of biofuel compounds using machine learning methods. Energy & fuels, 26(4):2416-2426, 2012."
1912,butyl methanoate,CCCCOC=O,293.1,0.003411805,0.7,-0.15490196,0.883154129,0.12,22.43743564,5.602626312,17.16125345,18.05281561,9.59045097,31.04435644,"Diego Alonso Saldana, Laurie Starck, Pascal Mougin, Bernard Rousseau, Nicolas Ferrando, and Benoit Creton. Prediction of density and viscosity of biofuel compounds using machine learning methods. Energy & fuels, 26(4):2416-2426, 2012."
1913,butyl methanoate,CCCCOC=O,325.3,0.003074085,0.46,-0.337242168,0.849375754,0.36,22.74828713,5.225311284,16.32501358,17.14109139,9.090531693,31.36827723,"Diego Alonso Saldana, Laurie Starck, Pascal Mougin, Bernard Rousseau, Nicolas Ferrando, and Benoit Creton. Prediction of density and viscosity of biofuel compounds using machine learning methods. Energy & fuels, 26(4):2416-2426, 2012."
1914,butyl methanoate,CCCCOC=O,351.0,0.002849003,0.35,-0.455931956,0.819911779,0.51,23.00632673,4.901905235,15.60409773,16.35617414,8.662271112,31.6619604,"Diego Alonso Saldana, Laurie Starck, Pascal Mougin, Bernard Rousseau, Nicolas Ferrando, and Benoit Creton. Prediction of density and viscosity of biofuel compounds using machine learning methods. Energy & fuels, 26(4):2416-2426, 2012."
1915,butyl methanoate,CCCCOC=O,360.0,0.002777778,0.33,-0.48148606,0.809010309,0.64,23.11061386,4.81670814,15.34187749,16.08043084,8.517616953,31.82187129,"Diego Alonso Saldana, Laurie Starck, Pascal Mougin, Bernard Rousseau, Nicolas Ferrando, and Benoit Creton. Prediction of density and viscosity of biofuel compounds using machine learning methods. Energy & fuels, 26(4):2416-2426, 2012."
1916,butyl methanoate,CCCCOC=O,370.3,0.002700513,0.3,-0.522878745,0.80381239,0.75,23.15024752,4.800896894,15.20428556,15.94450632,8.456339656,32.02266337,"Diego Alonso Saldana, Laurie Starck, Pascal Mougin, Bernard Rousseau, Nicolas Ferrando, and Benoit Creton. Prediction of density and viscosity of biofuel compounds using machine learning methods. Energy & fuels, 26(4):2416-2426, 2012."
1917,Butyl ethyl ether,CCCCOCC,298.15,0.003354016,0.41,-0.387216143,0.740569116,0.4,22.17292079,3.519517036,15.19830526,15.60073846,8.618250296,30.64935644,"Valentin Goussard, Francois Duprat, Jean-Luc Ploix, G erard Dreyfus, Veronique Nardello-Rataj, and Jean-Marie Aubry. A new machine-learning tool for fast estimation of liquid viscosity. application to cosmetic oils. Journal of Chemical Information and Modeling, 60(4):2012-2023, 2020."
1918,dipropylene glycol n-butyl ether,CCCCOCC(C)OCC(C)O,298.1,0.003354579,1.68,0.225309282,0.912148417,0.09,21.48538614,8.937685162,16.44018634,18.71360279,18.053318,29.32073267,"Diego Alonso Saldana, Laurie Starck, Pascal Mougin, Bernard Rousseau, Nicolas Ferrando, and Benoit Creton. Prediction of density and viscosity of biofuel compounds using machine learning methods. Energy & fuels, 26(4):2416-2426, 2012."
1919,dipropylene glycol n-butyl ether,CCCCOCC(C)OCC(C)O,308.1,0.003245699,1.34,0.127104798,0.900510159,0.15,21.57781188,8.722401623,16.1659912,18.36964664,17.6544916,29.5680198,"Diego Alonso Saldana, Laurie Starck, Pascal Mougin, Bernard Rousseau, Nicolas Ferrando, and Benoit Creton. Prediction of density and viscosity of biofuel compounds using machine learning methods. Energy & fuels, 26(4):2416-2426, 2012."
1920,dipropylene glycol n-butyl ether,CCCCOCC(C)OCC(C)O,318.1,0.003143666,1.08,0.033423755,0.88408854,0.12,21.7039901,8.421124296,15.79145141,17.89770144,17.11060286,29.70343564,"Diego Alonso Saldana, Laurie Starck, Pascal Mougin, Bernard Rousseau, Nicolas Ferrando, and Benoit Creton. Prediction of density and viscosity of biofuel compounds using machine learning methods. Energy & fuels, 26(4):2416-2426, 2012."
1921,Dibutyl ether,CCCCOCCCC,293.15,0.003411223,0.69,-0.161150909,0.76574809,0.23,21.88593069,2.883075823,15.56321989,15.82825662,10.76620287,30.05091089,"Sunghwan Kim, Paul A Thiessen, Tiejun Cheng, Jian Zhang, Asta Gindulyte, and Evan E Bolton. Pug-view: programmatic access to chemical annotations integrated in pubchem. Journal of cheminformatics, 11(1):1-11, 2019."
1922,2-Butoxyethanol,CCCCOCCO,298.15,0.003354016,2.9,0.462397998,0.88757385,0.13,21.58905941,13.10134917,16.47193355,21.04747027,14.68989847,29.77388119,"Valentin Goussard, Francois Duprat, Jean-Luc Ploix, G erard Dreyfus, Veronique Nardello-Rataj, and Jean-Marie Aubry. A new machine-learning tool for fast estimation of liquid viscosity. application to cosmetic oils. Journal of Chemical Information and Modeling, 60(4):2012-2023, 2020."
1923,Diethylene glycol mono-n-butyl ether,CCCCOCCOCCO,293.15,0.003411223,5.9,0.770852012,0.943957795,0.05,21.43359406,12.80411358,17.09638923,21.36000517,19.32358589,29.07753465,"Sunghwan Kim, Paul A Thiessen, Tiejun Cheng, Jian Zhang, Asta Gindulyte, and Evan E Bolton. Pug-view: programmatic access to chemical annotations integrated in pubchem. Journal of cheminformatics, 11(1):1-11, 2019."
1924,2-(2-butoxyethoxy)ethanol,CCCCOCCOCCO,298.1,0.003354579,3.85,0.58546073,0.941113285,0.05,21.45407921,12.67696068,17.02120829,21.22371016,19.15088916,29.2710495,"Diego Alonso Saldana, Laurie Starck, Pascal Mougin, Bernard Rousseau, Nicolas Ferrando, and Benoit Creton. Prediction of density and viscosity of biofuel compounds using machine learning methods. Energy & fuels, 26(4):2416-2426, 2012."
1925,Diethylene glycol monobutyl ether acetate,CCCCOCCOCCOC(C)=O,293.15,0.003411223,5.6,0.748188027,0.990139109,0.03,21.61863366,8.137323654,17.98007795,19.73591869,19.78803568,29.58713861,"Sunghwan Kim, Paul A Thiessen, Tiejun Cheng, Jian Zhang, Asta Gindulyte, and Evan E Bolton. Pug-view: programmatic access to chemical annotations integrated in pubchem. Journal of cheminformatics, 11(1):1-11, 2019."
1926,Triethylene Glycol n-Butyl Ether,CCCCOCCOCCOCCO,298.15,0.003354016,9.0,0.954242509,0.980344528,0.04,21.35465347,12.52453188,17.43144915,21.46483371,23.76380593,28.15945545,"Valentin Goussard, Francois Duprat, Jean-Luc Ploix, G erard Dreyfus, Veronique Nardello-Rataj, and Jean-Marie Aubry. A new machine-learning tool for fast estimation of liquid viscosity. application to cosmetic oils. Journal of Chemical Information and Modeling, 60(4):2012-2023, 2020."
1927,Tributyl phosphate,CCCCOP(=O)(OCCCC)OCCCC,288.15,0.003470415,11.1,1.045322979,0.982104538,0.08,21.71466337,5.783937109,16.75604158,17.7264495,20.93812741,29.42128713,"A Dean John et al. Lange's handbook of chemistry. In Universitas Of Tennese Knoxville, Fifthenth Edition, Mc. Graw Hill Inc, New York. Conference, 1999."
1928,Tributyl phosphite,CCCCOP(OCCCC)OCCCC,298.15,0.003354016,1.9,0.278753601,0.912631794,0.09,21.99528713,3.342515161,16.48733322,16.82301279,19.14547346,30.24577228,"A Dean John et al. Lange's handbook of chemistry. In Universitas Of Tennese Knoxville, Fifthenth Edition, Mc. Graw Hill Inc, New York. Conference, 1999."
1929,1-butyl mercaptan,CCCCS,293.15,0.003411223,0.56,-0.251811973,0.859059117,0.16,22.65514851,6.200357645,16.8139981,17.92095261,8.641026503,31.32905941,"Sunghwan Kim, Paul A Thiessen, Tiejun Cheng, Jian Zhang, Asta Gindulyte, and Evan E Bolton. Pug-view: programmatic access to chemical annotations integrated in pubchem. Journal of cheminformatics, 11(1):1-11, 2019."
1930,di-n-butyl sulfide,CCCCSCCCC,298.15,0.003354016,0.977237221,-0.01,0.827366323,0.18,22.17894059,3.684539858,16.41645352,16.82504241,12.55584011,30.57523762,"Gregory W Kau man and Peter C Jurs. Prediction of surface tension, viscosity, and thermal conductivity for common organic solvents using quantitative structure- property relationships. Journal of chemical information and computer sciences, 41(2):408-418, 2001."
1931,Butylbenzene,CCCCc1ccccc1,293.15,0.003411223,1.035,0.01494035,0.86288892,0.07,22.09465347,3.567981068,17.03934549,17.4090988,11.85009357,30.43927723,"A Dean John et al. Lange's handbook of chemistry. In Universitas Of Tennese Knoxville, Fifthenth Edition, Mc. Graw Hill Inc, New York. Conference, 1999."
1932,n-propyl chloride,CCCCl,273.6,0.003654971,0.4327,-0.363813105,0.915504676,0.18,23.49340594,7.162417479,16.21019251,17.7221535,6.983598344,32.52331683,"WE Wasburn. International critical tables of numerical data, physics, chemistry and technology. 1st electronic edition. Knovel: Norwich, NY, 2003."
1933,n-propyl chloride,CCCCl,278.39,0.003592083,0.4104,-0.386792648,0.904972426,0.2,23.58089109,7.045908331,15.98353194,17.46774464,6.882354224,32.61275248,"WE Wasburn. International critical tables of numerical data, physics, chemistry and technology. 1st electronic edition. Knovel: Norwich, NY, 2003."
1934,n-propyl chloride,CCCCl,283.21,0.003530949,0.3894,-0.409604053,0.899935958,0.28,23.62543564,6.996164461,15.86743939,17.34145138,6.835663454,32.72247525,"WE Wasburn. International critical tables of numerical data, physics, chemistry and technology. 1st electronic edition. Knovel: Norwich, NY, 2003."
1935,n-propyl chloride,CCCCl,287.8,0.003474635,0.3709,-0.430743167,0.898798107,0.26,23.6409703,6.970611937,15.82508606,17.29238304,6.817236382,32.6760198,"WE Wasburn. International critical tables of numerical data, physics, chemistry and technology. 1st electronic edition. Knovel: Norwich, NY, 2003."
1936,1-Chloropropane,CCCCl,288.15,0.003470415,0.372,-0.42945706,0.899044025,0.26,23.62589109,6.970310397,15.82798285,17.29490145,6.818037408,32.70153465,"A Dean John et al. Lange's handbook of chemistry. In Universitas Of Tennese Knoxville, Fifthenth Edition, Mc. Graw Hill Inc, New York. Conference, 1999."
1937,n-propyl chloride,CCCCl,293.86,0.003402981,0.3495,-0.45655282,0.884084943,0.25,23.76927723,6.841165974,15.52473596,16.96536011,6.695344047,32.88791089,"WE Wasburn. International critical tables of numerical data, physics, chemistry and technology. 1st electronic edition. Knovel: Norwich, NY, 2003."
1938,n-propyl chloride,CCCCl,298.91,0.003345489,0.3344,-0.475733731,0.877164022,0.39,23.8210099,6.778726645,15.37038994,16.79890077,6.63331016,32.93917822,"WE Wasburn. International critical tables of numerical data, physics, chemistry and technology. 1st electronic edition. Knovel: Norwich, NY, 2003."
1939,1-Chloropropane,CCCCl,303.15,0.003298697,0.318,-0.49757288,0.880306558,0.33,23.80471287,6.766830297,15.41216311,16.83237551,6.644186967,32.99441584,"A Dean John et al. Lange's handbook of chemistry. In Universitas Of Tennese Knoxville, Fifthenth Edition, Mc. Graw Hill Inc, New York. Conference, 1999."
1940,n-propyl chloride,CCCCl,303.53,0.003294567,0.3178,-0.497846107,0.878480523,0.38,23.81244554,6.759447878,15.38272214,16.80242179,6.635976172,32.96790099,"WE Wasburn. International critical tables of numerical data, physics, chemistry and technology. 1st electronic edition. Knovel: Norwich, NY, 2003."
1941,n-propyl chloride,CCCCl,308.53,0.003241176,0.3038,-0.517412231,0.873747194,0.37,23.85878218,6.716722183,15.27589554,16.68744999,6.595871399,33.07830693,"WE Wasburn. International critical tables of numerical data, physics, chemistry and technology. 1st electronic edition. Knovel: Norwich, NY, 2003."
1942,n-propyl chloride,CCCCl,313.97,0.003185018,0.2887,-0.539553216,0.864524382,0.51,23.94488119,6.61704145,15.08057934,16.46856284,6.512924736,33.18341584,"WE Wasburn. International critical tables of numerical data, physics, chemistry and technology. 1st electronic edition. Knovel: Norwich, NY, 2003."
1943,n-propyl chloride,CCCCl,317.83,0.003146336,0.2784,-0.555330769,0.857915599,0.67,24.01383168,6.560565303,14.93498413,16.31254018,6.454051078,33.25613861,"WE Wasburn. International critical tables of numerical data, physics, chemistry and technology. 1st electronic edition. Knovel: Norwich, NY, 2003."