Index,Name,CANON_SMILES,Temperature (K),Inverse temperature (1/K),Viscosity (cP),log(Viscosity),MD_density,MD_FV,MD_Rg,MD_SP_E,MD_SP_V,MD_SP,MD_HV,MD_RMSD,Reference
1593,n-Hexa decyl cyclo hexane,CCCCCCCCCCCCCCCCC1CCCCC1,308.15,0.003245173,8.76,0.942504106,0.807485594,0.14,21.3109901,0.66719968,16.13517238,16.14899711,24.43288916,29.46859406,"Dabir S Viswanath, Tushar K Ghosh, Dasika HL Prasad, Nidamarty VK Dutt, Kalipatnapu Y Rani, Dabir S Viswanath, Tushar K Ghosh, Dasika HL Prasad, Nidamarty VK Dutt, and Kalipatnapu Y Rani. Correlations and estimation of pure liquid viscosity.Viscosity of Liquids: Theory, Estimation, Experiment, and Data, pages 135-405, 2007."
1594,n-octadecane,CCCCCCCCCCCCCCCCCC,311.0,0.003215434,3.21,0.506505032,0.765714795,0.11,21.46554455,0.638010699,15.7750482,15.78797908,20.41889921,29.80919802,"Diego Alonso Saldana, Laurie Starck, Pascal Mougin, Bernard Rousseau, Nicolas Ferrando, and Benoit Creton. Prediction of density and viscosity of biofuel compounds using machine learning methods. Energy & fuels, 26(4):2416-2426, 2012."
1595,n-octadecane,CCCCCCCCCCCCCCCCCC,333.1,0.003002101,2.06,0.31386722,0.745606604,0.31,21.63829703,0.613618878,15.17924775,15.19167968,19.48980036,30.00894059,"Diego Alonso Saldana, Laurie Starck, Pascal Mougin, Bernard Rousseau, Nicolas Ferrando, and Benoit Creton. Prediction of density and viscosity of biofuel compounds using machine learning methods. Energy & fuels, 26(4):2416-2426, 2012."
1596,n-octadecane,CCCCCCCCCCCCCCCCCC,372.0,0.002688172,1.15,0.06069784,0.714243571,0.71,21.95353465,0.575631289,14.26489677,14.27654557,18.09728788,30.23839604,"Diego Alonso Saldana, Laurie Starck, Pascal Mougin, Bernard Rousseau, Nicolas Ferrando, and Benoit Creton. Prediction of density and viscosity of biofuel compounds using machine learning methods. Energy & fuels, 26(4):2416-2426, 2012."
1597,Methyl stearate,CCCCCCCCCCCCCCCCCC(=O)OC,298.15,0.003354016,6.0,0.77815125,0.873690017,0.03,21.29674257,3.097418401,17.30798463,17.58321647,25.83950434,29.48036634,"Valentin Goussard, Francois Duprat, Jean-Luc Ploix, G erard Dreyfus, Veronique Nardello-Rataj, and Jean-Marie Aubry. A new machine-learning tool for fast estimation of liquid viscosity. application to cosmetic oils. Journal of Chemical Information and Modeling, 60(4):2012-2023, 2020."
1598,ethyl stearate,CCCCCCCCCCCCCCCCCC(=O)OCC,323.15,0.003094538,3.73,0.571708832,0.832738156,0.12,21.64185149,2.505497328,16.27076239,16.46285086,24.95375018,29.92074257,"WE Wasburn. International critical tables of numerical data, physics, chemistry and technology. 1st electronic edition. Knovel: Norwich, NY, 2003."
1599,butyl octadecanoate,CCCCCCCCCCCCCCCCCC(=O)OCCCC,298.1,0.003354579,7.0,0.84509804,0.85577963,0.06,21.36327723,2.362476163,16.88419283,17.0489438,28.24116409,29.53035644,"Diego Alonso Saldana, Laurie Starck, Pascal Mougin, Bernard Rousseau, Nicolas Ferrando, and Benoit Creton. Prediction of density and viscosity of biofuel compounds using machine learning methods. Energy & fuels, 26(4):2416-2426, 2012."
1600,butyl octadecanoate,CCCCCCCCCCCCCCCCCC(=O)OCCCC,303.1,0.003299241,6.66,0.823474229,0.851364316,0.06,21.39933663,2.318690975,16.75182744,16.9118351,27.94932061,29.14475248,"Diego Alonso Saldana, Laurie Starck, Pascal Mougin, Bernard Rousseau, Nicolas Ferrando, and Benoit Creton. Prediction of density and viscosity of biofuel compounds using machine learning methods. Energy & fuels, 26(4):2416-2426, 2012."
1601,butyl octadecanoate,CCCCCCCCCCCCCCCCCC(=O)OCCCC,313.1,0.003193868,5.16,0.712649702,0.846345224,0.09,21.4400396,2.278522123,16.60024994,16.75616881,27.62718997,29.75449505,"Diego Alonso Saldana, Laurie Starck, Pascal Mougin, Bernard Rousseau, Nicolas Ferrando, and Benoit Creton. Prediction of density and viscosity of biofuel compounds using machine learning methods. Energy & fuels, 26(4):2416-2426, 2012."
1602,butyl octadecanoate,CCCCCCCCCCCCCCCCCC(=O)OCCCC,323.1,0.003095017,4.09,0.611723308,0.833288478,0.15,21.55311881,2.217504636,16.2342368,16.3852905,26.86951007,29.89432673,"Diego Alonso Saldana, Laurie Starck, Pascal Mougin, Bernard Rousseau, Nicolas Ferrando, and Benoit Creton. Prediction of density and viscosity of biofuel compounds using machine learning methods. Energy & fuels, 26(4):2416-2426, 2012."
1603,butyl octadecanoate,CCCCCCCCCCCCCCCCCC(=O)OCCCC,333.1,0.003002101,3.31,0.519827994,0.82918288,0.14,21.58922772,2.154265411,16.07947168,16.22350777,26.50142835,30.27809901,"Diego Alonso Saldana, Laurie Starck, Pascal Mougin, Bernard Rousseau, Nicolas Ferrando, and Benoit Creton. Prediction of density and viscosity of biofuel compounds using machine learning methods. Energy & fuels, 26(4):2416-2426, 2012."
1604,butyl octadecanoate,CCCCCCCCCCCCCCCCCC(=O)OCCCC,343.1,0.002914602,2.73,0.436162647,0.826374943,0.21,21.60505941,2.143827014,15.97780461,16.12133049,26.28353606,30.10505941,"Diego Alonso Saldana, Laurie Starck, Pascal Mougin, Bernard Rousseau, Nicolas Ferrando, and Benoit Creton. Prediction of density and viscosity of biofuel compounds using machine learning methods. Energy & fuels, 26(4):2416-2426, 2012."
1605,butyl octadecanoate,CCCCCCCCCCCCCCCCCC(=O)OCCCC,353.1,0.002832059,2.29,0.359835482,0.811098239,0.24,21.75382178,2.066633016,15.57832769,15.71515452,25.48770857,30.35239604,"Diego Alonso Saldana, Laurie Starck, Pascal Mougin, Bernard Rousseau, Nicolas Ferrando, and Benoit Creton. Prediction of density and viscosity of biofuel compounds using machine learning methods. Energy & fuels, 26(4):2416-2426, 2012."
1606,butyl octadecanoate,CCCCCCCCCCCCCCCCCC(=O)OCCCC,363.1,0.002754062,1.98,0.29666519,0.806370817,0.27,21.78456436,2.048450383,15.44777993,15.58330286,25.23633022,30.3270099,"Diego Alonso Saldana, Laurie Starck, Pascal Mougin, Bernard Rousseau, Nicolas Ferrando, and Benoit Creton. Prediction of density and viscosity of biofuel compounds using machine learning methods. Energy & fuels, 26(4):2416-2426, 2012."
1607,n-Nona decane,CCCCCCCCCCCCCCCCCCC,308.15,0.003245173,4.0,0.602059991,0.781199371,0.08,21.32160396,0.655053871,16.14214219,16.15546444,22.05485806,29.78943564,"Dabir S Viswanath, Tushar K Ghosh, Dasika HL Prasad, Nidamarty VK Dutt, Kalipatnapu Y Rani, Dabir S Viswanath, Tushar K Ghosh, Dasika HL Prasad, Nidamarty VK Dutt, and Kalipatnapu Y Rani. Correlations and estimation of pure liquid viscosity.Viscosity of Liquids: Theory, Estimation, Experiment, and Data, pages 135-405, 2007."
1608,n-eicosane,CCCCCCCCCCCCCCCCCCCC,310.9,0.003216468,4.29,0.632457292,0.776386885,0.16,21.40660396,0.652945311,15.97326366,15.98663774,22.84823688,29.59436634,"Diego Alonso Saldana, Laurie Starck, Pascal Mougin, Bernard Rousseau, Nicolas Ferrando, and Benoit Creton. Prediction of density and viscosity of biofuel compounds using machine learning methods. Energy & fuels, 26(4):2416-2426, 2012."
1609,n-eicosane,CCCCCCCCCCCCCCCCCCCC,313.1,0.003193868,4.14,0.617000341,0.767074046,0.15,21.50566337,0.634067126,15.71759966,15.73041985,22.40712733,29.73310891,"Diego Alonso Saldana, Laurie Starck, Pascal Mougin, Bernard Rousseau, Nicolas Ferrando, and Benoit Creton. Prediction of density and viscosity of biofuel compounds using machine learning methods. Energy & fuels, 26(4):2416-2426, 2012."
1610,n-Eicosane,CCCCCCCCCCCCCCCCCCCC,313.15,0.003193358,4.14,0.617000341,0.774643587,0.12,21.43619802,0.640846067,15.9337739,15.94669478,22.79158225,29.88850495,"Dabir S Viswanath, Tushar K Ghosh, Dasika HL Prasad, Nidamarty VK Dutt, Kalipatnapu Y Rani, Dabir S Viswanath, Tushar K Ghosh, Dasika HL Prasad, Nidamarty VK Dutt, and Kalipatnapu Y Rani. Correlations and estimation of pure liquid viscosity.Viscosity of Liquids: Theory, Estimation, Experiment, and Data, pages 135-405, 2007."
1611,n-eicosane,CCCCCCCCCCCCCCCCCCCC,333.1,0.003002101,2.68,0.428134794,0.76148605,0.19,21.56058416,0.629599719,15.48597199,15.49880498,21.96520502,30.24770297,"Diego Alonso Saldana, Laurie Starck, Pascal Mougin, Bernard Rousseau, Nicolas Ferrando, and Benoit Creton. Prediction of density and viscosity of biofuel compounds using machine learning methods. Energy & fuels, 26(4):2416-2426, 2012."
1612,n-eicosane,CCCCCCCCCCCCCCCCCCCC,353.1,0.002832059,1.89,0.276461804,0.743939123,0.28,21.7149505,0.609731142,14.97388123,14.98632509,21.08922486,30.51768317,"Diego Alonso Saldana, Laurie Starck, Pascal Mougin, Bernard Rousseau, Nicolas Ferrando, and Benoit Creton. Prediction of density and viscosity of biofuel compounds using machine learning methods. Energy & fuels, 26(4):2416-2426, 2012."
1613,n-eicosane,CCCCCCCCCCCCCCCCCCCC,372.0,0.002688172,1.42,0.152288344,0.722376665,0.54,21.92818812,0.571797206,14.36998758,14.38139286,20.07462474,30.33710891,"Diego Alonso Saldana, Laurie Starck, Pascal Mougin, Bernard Rousseau, Nicolas Ferrando, and Benoit Creton. Prediction of density and viscosity of biofuel compounds using machine learning methods. Energy & fuels, 26(4):2416-2426, 2012."
1614,n-eicosane,CCCCCCCCCCCCCCCCCCCC,373.1,0.002680247,1.41,0.149219113,0.719011885,0.46,21.96485149,0.576809941,14.28659483,14.29825902,19.94332167,30.52744554,"Diego Alonso Saldana, Laurie Starck, Pascal Mougin, Bernard Rousseau, Nicolas Ferrando, and Benoit Creton. Prediction of density and viscosity of biofuel compounds using machine learning methods. Energy & fuels, 26(4):2416-2426, 2012."
1615,n-eicosane,CCCCCCCCCCCCCCCCCCCC,393.1,0.002543882,1.09,0.037426498,0.708081982,0.65,22.08812871,0.55566345,13.95613438,13.96722541,19.3870616,30.69459406,"Diego Alonso Saldana, Laurie Starck, Pascal Mougin, Bernard Rousseau, Nicolas Ferrando, and Benoit Creton. Prediction of density and viscosity of biofuel compounds using machine learning methods. Energy & fuels, 26(4):2416-2426, 2012."
1616,n-heneicosane,CCCCCCCCCCCCCCCCCCCCC,343.1,0.002914602,2.52,0.401400541,0.748732127,0.28,21.68716832,0.616895327,15.09895814,15.11158839,22.30141696,30.18356436,"Diego Alonso Saldana, Laurie Starck, Pascal Mougin, Bernard Rousseau, Nicolas Ferrando, and Benoit Creton. Prediction of density and viscosity of biofuel compounds using machine learning methods. Energy & fuels, 26(4):2416-2426, 2012."
1617,n-heneicosane,CCCCCCCCCCCCCCCCCCCCC,353.1,0.002832059,2.12,0.326335861,0.743454435,0.33,21.73663366,0.604942358,14.9280978,14.94038603,21.98425239,30.24214851,"Diego Alonso Saldana, Laurie Starck, Pascal Mougin, Bernard Rousseau, Nicolas Ferrando, and Benoit Creton. Prediction of density and viscosity of biofuel compounds using machine learning methods. Energy & fuels, 26(4):2416-2426, 2012."
1618,n-heneicosane,CCCCCCCCCCCCCCCCCCCCC,363.1,0.002754062,1.81,0.257678575,0.727594096,0.5,21.89163366,0.581385179,14.49683908,14.50852335,21.22898532,30.36563366,"Diego Alonso Saldana, Laurie Starck, Pascal Mougin, Bernard Rousseau, Nicolas Ferrando, and Benoit Creton. Prediction of density and viscosity of biofuel compounds using machine learning methods. Energy & fuels, 26(4):2416-2426, 2012."
1619,n-docosane,CCCCCCCCCCCCCCCCCCCCCC,318.1,0.003143666,4.69,0.671172843,0.763888155,0.29,21.50957426,0.624730549,15.57153279,15.58410797,24.23454968,30.27748515,"Diego Alonso Saldana, Laurie Starck, Pascal Mougin, Bernard Rousseau, Nicolas Ferrando, and Benoit Creton. Prediction of density and viscosity of biofuel compounds using machine learning methods. Energy & fuels, 26(4):2416-2426, 2012."
1620,n-docosane,CCCCCCCCCCCCCCCCCCCCCC,358.1,0.002792516,2.14,0.330413773,0.737535742,0.41,21.76515842,0.599267005,14.73536226,14.74757756,22.60343908,30.49176238,"Diego Alonso Saldana, Laurie Starck, Pascal Mougin, Bernard Rousseau, Nicolas Ferrando, and Benoit Creton. Prediction of density and viscosity of biofuel compounds using machine learning methods. Energy & fuels, 26(4):2416-2426, 2012."
1621,n-tricosane,CCCCCCCCCCCCCCCCCCCCCCC,333.1,0.003002101,3.76,0.575187845,0.768173677,0.11,21.48637624,0.636352221,15.56833145,15.58136918,25.18405167,29.9520198,"Diego Alonso Saldana, Laurie Starck, Pascal Mougin, Bernard Rousseau, Nicolas Ferrando, and Benoit Creton. Prediction of density and viscosity of biofuel compounds using machine learning methods. Energy & fuels, 26(4):2416-2426, 2012."
1622,n-tricosane,CCCCCCCCCCCCCCCCCCCCCCC,343.1,0.002914602,3.12,0.494154594,0.751899235,0.2,21.63744554,0.610646557,15.10583773,15.11821621,24.26741123,30.15366337,"Diego Alonso Saldana, Laurie Starck, Pascal Mougin, Bernard Rousseau, Nicolas Ferrando, and Benoit Creton. Prediction of density and viscosity of biofuel compounds using machine learning methods. Energy & fuels, 26(4):2416-2426, 2012."
1623,n-tricosane,CCCCCCCCCCCCCCCCCCCCCCC,353.1,0.002832059,2.61,0.416640507,0.74551008,0.34,21.69511881,0.601309608,14.91160938,14.92376314,23.8815193,30.53159406,"Diego Alonso Saldana, Laurie Starck, Pascal Mougin, Bernard Rousseau, Nicolas Ferrando, and Benoit Creton. Prediction of density and viscosity of biofuel compounds using machine learning methods. Energy & fuels, 26(4):2416-2426, 2012."
1624,n-tricosane,CCCCCCCCCCCCCCCCCCCCCCC,363.1,0.002754062,2.2,0.342422681,0.741003719,0.28,21.74580198,0.597807417,14.76155285,14.7736922,23.57570193,30.14352475,"Diego Alonso Saldana, Laurie Starck, Pascal Mougin, Bernard Rousseau, Nicolas Ferrando, and Benoit Creton. Prediction of density and viscosity of biofuel compounds using machine learning methods. Energy & fuels, 26(4):2416-2426, 2012."
1625,n-tricosane,CCCCCCCCCCCCCCCCCCCCCCC,372.0,0.002688172,1.93,0.285557309,0.735473295,0.48,21.79585149,0.593695537,14.59771011,14.60981407,23.25728566,30.59585149,"Diego Alonso Saldana, Laurie Starck, Pascal Mougin, Bernard Rousseau, Nicolas Ferrando, and Benoit Creton. Prediction of density and viscosity of biofuel compounds using machine learning methods. Energy & fuels, 26(4):2416-2426, 2012."
1626,n-tricosane,CCCCCCCCCCCCCCCCCCCCCCC,388.1,0.002576656,1.5,0.176091259,0.713240094,0.78,22.02710891,0.567158887,14.00098084,14.01249841,22.13133194,30.73791089,"Diego Alonso Saldana, Laurie Starck, Pascal Mougin, Bernard Rousseau, Nicolas Ferrando, and Benoit Creton. Prediction of density and viscosity of biofuel compounds using machine learning methods. Energy & fuels, 26(4):2416-2426, 2012."
1627,n-hexacosane,CCCCCCCCCCCCCCCCCCCCCCCCCC,333.1,0.003002101,5.17,0.713490543,0.770356307,0.24,21.45253465,0.636399559,15.5432627,15.55631723,28.1955173,30.20840594,"Diego Alonso Saldana, Laurie Starck, Pascal Mougin, Bernard Rousseau, Nicolas Ferrando, and Benoit Creton. Prediction of density and viscosity of biofuel compounds using machine learning methods. Energy & fuels, 26(4):2416-2426, 2012."
1628,n-hexacosane,CCCCCCCCCCCCCCCCCCCCCCCCCC,372.0,0.002688172,2.48,0.394451681,0.746031376,0.36,21.69548515,0.596064072,14.77476429,14.78681637,26.42743329,30.53958416,"Diego Alonso Saldana, Laurie Starck, Pascal Mougin, Bernard Rousseau, Nicolas Ferrando, and Benoit Creton. Prediction of density and viscosity of biofuel compounds using machine learning methods. Energy & fuels, 26(4):2416-2426, 2012."
1629,n-triacontane,CCCCCCCCCCCCCCCCCCCCCCCCCCCCCC,343.1,0.002914602,6.04,0.781036939,0.773794959,0.2,21.44825743,0.637615039,15.48406635,15.49723321,32.04733338,30.99842574,"Diego Alonso Saldana, Laurie Starck, Pascal Mougin, Bernard Rousseau, Nicolas Ferrando, and Benoit Creton. Prediction of density and viscosity of biofuel compounds using machine learning methods. Energy & fuels, 26(4):2416-2426, 2012."
1630,n-triacontane,CCCCCCCCCCCCCCCCCCCCCCCCCCCCCC,353.1,0.002832059,4.87,0.687528961,0.761133616,0.29,21.5540495,0.611117445,15.14108651,15.15345281,31.18992741,30.67834653,"Diego Alonso Saldana, Laurie Starck, Pascal Mougin, Bernard Rousseau, Nicolas Ferrando, and Benoit Creton. Prediction of density and viscosity of biofuel compounds using machine learning methods. Energy & fuels, 26(4):2416-2426, 2012."
1631,n-triacontane,CCCCCCCCCCCCCCCCCCCCCCCCCCCCCC,363.1,0.002754062,4.04,0.606381365,0.757208585,0.35,21.60025743,0.607895602,15.0114225,15.02376785,30.84554692,30.7209604,"Diego Alonso Saldana, Laurie Starck, Pascal Mougin, Bernard Rousseau, Nicolas Ferrando, and Benoit Creton. Prediction of density and viscosity of biofuel compounds using machine learning methods. Energy & fuels, 26(4):2416-2426, 2012."
1632,n-dotriacontane,CCCCCCCCCCCCCCCCCCCCCCCCCCCCCCCC,348.1,0.002872738,6.58,0.818225894,0.764564883,0.27,21.56327723,0.619882728,15.21373175,15.22639226,33.36932829,30.50506931,"Diego Alonso Saldana, Laurie Starck, Pascal Mougin, Bernard Rousseau, Nicolas Ferrando, and Benoit Creton. Prediction of density and viscosity of biofuel compounds using machine learning methods. Energy & fuels, 26(4):2416-2426, 2012."
1633,n-dotriacontane,CCCCCCCCCCCCCCCCCCCCCCCCCCCCCCCC,353.1,0.002832059,5.46,0.737192643,0.760938992,0.25,21.6069703,0.613649689,15.10224461,15.11473075,33.05512406,30.89194059,"Diego Alonso Saldana, Laurie Starck, Pascal Mougin, Bernard Rousseau, Nicolas Ferrando, and Benoit Creton. Prediction of density and viscosity of biofuel compounds using machine learning methods. Energy & fuels, 26(4):2416-2426, 2012."
1634,n-dotriacontane,CCCCCCCCCCCCCCCCCCCCCCCCCCCCCCCC,363.1,0.002754062,4.49,0.652246341,0.757566135,0.34,21.64061386,0.615550352,14.9734648,14.98614873,32.66856532,30.8200396,"Diego Alonso Saldana, Laurie Starck, Pascal Mougin, Bernard Rousseau, Nicolas Ferrando, and Benoit Creton. Prediction of density and viscosity of biofuel compounds using machine learning methods. Energy & fuels, 26(4):2416-2426, 2012."
1635,n-dotriacontane,CCCCCCCCCCCCCCCCCCCCCCCCCCCCCCCC,372.0,0.002688172,3.82,0.582063363,0.755216029,0.3,21.66225743,0.60521808,14.86516053,14.87751812,32.3227222,30.75028713,"Diego Alonso Saldana, Laurie Starck, Pascal Mougin, Bernard Rousseau, Nicolas Ferrando, and Benoit Creton. Prediction of density and viscosity of biofuel compounds using machine learning methods. Energy & fuels, 26(4):2416-2426, 2012."
1636,cetyl alcohol,CCCCCCCCCCCCCCCCO,323.15,0.003094538,14.6,1.164352856,0.805289206,0.1,21.40460396,8.636113806,15.76353695,17.97504815,23.89184091,29.34215842,"WE Wasburn. International critical tables of numerical data, physics, chemistry and technology. 1st electronic edition. Knovel: Norwich, NY, 2003."
1637,1-hexadecanol,CCCCCCCCCCCCCCCCO,353.1,0.002832059,11.1,1.045322979,0.777848164,0.33,21.6719901,7.72338122,15.04453208,16.91235178,22.00993012,30.2649901,"Diego Alonso Saldana, Laurie Starck, Pascal Mougin, Bernard Rousseau, Nicolas Ferrando, and Benoit Creton. Prediction of density and viscosity of biofuel compounds using machine learning methods. Energy & fuels, 26(4):2416-2426, 2012."
1638,cetyl alcohol,CCCCCCCCCCCCCCCCO,363.15,0.002753683,3.53,0.547774705,0.779983693,0.24,21.63405941,7.516651957,15.07457726,16.84574286,21.80444035,30.06335644,"WE Wasburn. International critical tables of numerical data, physics, chemistry and technology. 1st electronic edition. Knovel: Norwich, NY, 2003."
1639,Hexa decyl benzene,CCCCCCCCCCCCCCCCc1ccccc1,303.15,0.003298697,7.74,0.888740961,0.851747835,0.08,21.45722772,1.792614989,16.92682356,17.02178092,25.20031006,29.58865347,"Dabir S Viswanath, Tushar K Ghosh, Dasika HL Prasad, Nidamarty VK Dutt, Kalipatnapu Y Rani, Dabir S Viswanath, Tushar K Ghosh, Dasika HL Prasad, Nidamarty VK Dutt, and Kalipatnapu Y Rani. Correlations and estimation of pure liquid viscosity.Viscosity of Liquids: Theory, Estimation, Experiment, and Data, pages 135-405, 2007."
1640,Tetradecylbenzene,CCCCCCCCCCCCCCc1ccccc1,283.15,0.003531697,10.321,1.013721778,0.864219748,0.03,21.40742574,2.019445059,17.29912102,17.41686207,23.5904872,28.86622772,"Sunghwan Kim, Paul A Thiessen, Tiejun Cheng, Jian Zhang, Asta Gindulyte, and Evan E Bolton. Pug-view: programmatic access to chemical annotations integrated in pubchem. Journal of cheminformatics, 11(1):1-11, 2019."