Index,Name,CANON_SMILES,Temperature (K),Inverse temperature (1/K),Viscosity (cP),log(Viscosity),MD_density,MD_FV,MD_Rg,MD_SP_E,MD_SP_V,MD_SP,MD_HV,MD_RMSD,Reference
898,propane,CCC,280.0,0.003571429,0.12,-0.920818754,0.497745968,2.43,23.74523762,0.438202601,12.08387575,12.09185888,3.652379537,32.87212871,"Diego Alonso Saldana, Laurie Starck, Pascal Mougin, Bernard Rousseau, Nicolas Ferrando, and Benoit Creton. Prediction of density and viscosity of biofuel compounds using machine learning methods. Energy & fuels, 26(4):2416-2426, 2012."
899,propane,CCC,290.0,0.003448276,0.11,-0.958607315,0.477991148,3.39,24.06,0.416301119,11.54906008,11.55659817,3.521106719,33.24561386,"Diego Alonso Saldana, Laurie Starck, Pascal Mougin, Bernard Rousseau, Nicolas Ferrando, and Benoit Creton. Prediction of density and viscosity of biofuel compounds using machine learning methods. Energy & fuels, 26(4):2416-2426, 2012."
900,propionitrile,CCC#N,273.15,0.003660992,0.541,-0.266802735,0.758616205,0.29,23.74544554,13.96773647,14.85581722,20.39107119,7.758119117,32.93793069,"WE Wasburn. International critical tables of numerical data, physics, chemistry and technology. 1st electronic edition. Knovel: Norwich, NY, 2003."
901,Propionitrile,CCC#N,288.15,0.003470415,0.454,-0.342944147,0.737163006,0.37,23.98228713,13.59110087,14.35273341,19.76668027,7.550125099,33.28947525,"Sunghwan Kim, Paul A Thiessen, Tiejun Cheng, Jian Zhang, Asta Gindulyte, and Evan E Bolton. Pug-view: programmatic access to chemical annotations integrated in pubchem. Journal of cheminformatics, 11(1):1-11, 2019."
902,diethyl ketone,CCC(=O)CC,273.61,0.003654837,0.5914,-0.22811868,0.834607202,0.11,22.04494059,8.732538344,17.29612966,19.37567786,9.803793749,30.50440594,"WE Wasburn. International critical tables of numerical data, physics, chemistry and technology. 1st electronic edition. Knovel: Norwich, NY, 2003."
903,diethyl ketone,CCC(=O)CC,282.25,0.003542958,0.5302,-0.275560277,0.820830282,0.13,22.16048515,8.566366731,16.94723531,18.98937623,9.604684101,30.64228713,"WE Wasburn. International critical tables of numerical data, physics, chemistry and technology. 1st electronic edition. Knovel: Norwich, NY, 2003."
904,diethyl ketone,CCC(=O)CC,291.85,0.003426418,0.4748,-0.32348929,0.822957972,0.05,22.1480198,8.535423052,16.95957238,18.98643038,9.597593159,30.60938614,"WE Wasburn. International critical tables of numerical data, physics, chemistry and technology. 1st electronic edition. Knovel: Norwich, NY, 2003."
905,Diethyl ketone,CCC(=O)CC,292.15,0.003422899,0.47,-0.327902142,0.817007347,0.13,22.20193069,8.47663885,16.82058627,18.83584315,9.520334349,30.7460099,"Dabir S Viswanath, Tushar K Ghosh, Dasika HL Prasad, Nidamarty VK Dutt, Kalipatnapu Y Rani, Dabir S Viswanath, Tushar K Ghosh, Dasika HL Prasad, Nidamarty VK Dutt, and Kalipatnapu Y Rani. Correlations and estimation of pure liquid viscosity.Viscosity of Liquids: Theory, Estimation, Experiment, and Data, pages 135-405, 2007."
906,diethyl ketone,CCC(=O)CC,293.15,0.003411223,0.4799,-0.31884925,0.82226966,0.09,22.15776238,8.523654038,16.93474919,18.95896249,9.581622226,30.61554455,"WE Wasburn. International critical tables of numerical data, physics, chemistry and technology. 1st electronic edition. Knovel: Norwich, NY, 2003."
907,diethyl ketone,CCC(=O)CC,300.22,0.003330891,0.4328,-0.363712748,0.806754973,0.14,22.29309901,8.347953853,16.55913917,18.5444898,9.372078767,30.7059901,"WE Wasburn. International critical tables of numerical data, physics, chemistry and technology. 1st electronic edition. Knovel: Norwich, NY, 2003."
908,diethyl ketone,CCC(=O)CC,309.36,0.00323248,0.3939,-0.404614019,0.797736448,0.19,22.37866337,8.216780394,16.31470744,18.26717173,9.226029827,30.93009901,"WE Wasburn. International critical tables of numerical data, physics, chemistry and technology. 1st electronic edition. Knovel: Norwich, NY, 2003."
909,diethyl ketone,CCC(=O)CC,317.85,0.003146138,0.3623,-0.440931666,0.787656746,0.18,22.4779604,8.072615756,16.05199364,17.96767096,9.069435212,31.05616832,"WE Wasburn. International critical tables of numerical data, physics, chemistry and technology. 1st electronic edition. Knovel: Norwich, NY, 2003."
910,diethyl ketone,CCC(=O)CC,326.59,0.003061943,0.3339,-0.476383581,0.782719807,0.23,22.5200099,7.982903957,15.91986338,17.8093638,8.991087394,31.09248515,"WE Wasburn. International critical tables of numerical data, physics, chemistry and technology. 1st electronic edition. Knovel: Norwich, NY, 2003."
911,diethyl ketone,CCC(=O)CC,335.58,0.002979915,0.3079,-0.511590311,0.772173743,0.39,22.62417822,7.855540296,15.6482548,17.509487,8.840510011,31.23556436,"WE Wasburn. International critical tables of numerical data, physics, chemistry and technology. 1st electronic edition. Knovel: Norwich, NY, 2003."
912,diethyl ketone,CCC(=O)CC,345.35,0.002895613,0.2834,-0.547600154,0.764973853,0.36,22.69706931,7.733210537,15.45838131,17.28493009,8.72658468,31.35018812,"WE Wasburn. International critical tables of numerical data, physics, chemistry and technology. 1st electronic edition. Knovel: Norwich, NY, 2003."
913,diethyl ketone,CCC(=O)CC,354.62,0.00281992,0.2623,-0.581201709,0.75254915,0.44,22.8079505,7.595719195,15.13879365,16.93758807,8.552562014,31.5469703,"WE Wasburn. International critical tables of numerical data, physics, chemistry and technology. 1st electronic edition. Knovel: Norwich, NY, 2003."
914,diethyl ketone,CCC(=O)CC,364.12,0.002746347,0.2426,-0.615109204,0.752430078,0.59,22.82165347,7.549139642,15.10898763,16.89007811,8.528727046,31.52217822,"WE Wasburn. International critical tables of numerical data, physics, chemistry and technology. 1st electronic edition. Knovel: Norwich, NY, 2003."
915,diethyl ketone,CCC(=O)CC,371.97,0.002688389,0.2279,-0.642255675,0.732652282,0.65,23.01381188,7.323402324,14.64831168,16.37711093,8.275529486,31.74045545,"WE Wasburn. International critical tables of numerical data, physics, chemistry and technology. 1st electronic edition. Knovel: Norwich, NY, 2003."
916,N-Methyl propanamide,CCC(=O)NC,293.15,0.003411223,6.06,0.782472624,0.959375509,0.02,21.58909901,17.88766774,19.79378726,26.67903846,16.03099573,29.93242574,"A Dean John et al. Lange's handbook of chemistry. In Universitas Of Tennese Knoxville, Fifthenth Edition, Mc. Graw Hill Inc, New York. Conference, 1999."
917,N-Methyl propanamide,CCC(=O)NC,303.15,0.003298697,4.58,0.660865478,0.952156217,0.02,21.64391089,17.64098758,19.6119952,26.37880555,15.81964148,29.88006931,"A Dean John et al. Lange's handbook of chemistry. In Universitas Of Tennese Knoxville, Fifthenth Edition, Mc. Graw Hill Inc, New York. Conference, 1999."
918,N-Methyl propanamide,CCC(=O)NC,313.15,0.003193358,3.56,0.551449998,0.945680797,0.03,21.69725743,17.43095756,19.45183248,26.1193329,15.64378597,30.06054455,"A Dean John et al. Lange's handbook of chemistry. In Universitas Of Tennese Knoxville, Fifthenth Edition, Mc. Graw Hill Inc, New York. Conference, 1999."
919,methyl propionate,CCC(=O)OC,273.53,0.003655906,0.5788,-0.237471478,0.935666883,0.06,22.35774257,8.038820176,17.97597953,19.69166968,9.270422754,30.9350396,"WE Wasburn. International critical tables of numerical data, physics, chemistry and technology. 1st electronic edition. Knovel: Norwich, NY, 2003."
920,methyl propionate,CCC(=O)OC,282.88,0.003535068,0.5142,-0.288867928,0.941078064,0.07,22.31749505,8.035970393,18.04798434,19.75629951,9.295884542,30.89146535,"WE Wasburn. International critical tables of numerical data, physics, chemistry and technology. 1st electronic edition. Knovel: Norwich, NY, 2003."
921,methyl propionate,CCC(=O)OC,289.94,0.003448989,0.4725,-0.325598187,0.932931169,0.07,22.38272277,7.914124365,17.85019758,19.52610311,9.182064102,30.95931683,"WE Wasburn. International critical tables of numerical data, physics, chemistry and technology. 1st electronic edition. Knovel: Norwich, NY, 2003."
922,methyl propionate,CCC(=O)OC,293.15,0.003411223,0.461,-0.336299075,0.921321059,0.1,22.47044554,7.8060488,17.59409997,19.24816805,9.050582575,31.13233663,"WE Wasburn. International critical tables of numerical data, physics, chemistry and technology. 1st electronic edition. Knovel: Norwich, NY, 2003."
923,methyl propionate,CCC(=O)OC,296.61,0.00337143,0.4368,-0.35971737,0.926698855,0.08,22.4309604,7.838357669,17.6976229,19.35591864,9.102842033,30.96662376,"WE Wasburn. International critical tables of numerical data, physics, chemistry and technology. 1st electronic edition. Knovel: Norwich, NY, 2003."
924,methyl propionate,CCC(=O)OC,302.76,0.003302946,0.4098,-0.387428046,0.918355181,0.08,22.49561386,7.741508644,17.49461393,19.1311085,8.994014561,31.1600297,"WE Wasburn. International critical tables of numerical data, physics, chemistry and technology. 1st electronic edition. Knovel: Norwich, NY, 2003."
925,Methyl propionate,CCC(=O)OC,303.15,0.003298697,0.41,-0.387216143,0.915964313,0.1,22.5199802,7.697885871,17.44864004,19.07136058,8.96421848,31.17225743,"Dabir S Viswanath, Tushar K Ghosh, Dasika HL Prasad, Nidamarty VK Dutt, Kalipatnapu Y Rani, Dabir S Viswanath, Tushar K Ghosh, Dasika HL Prasad, Nidamarty VK Dutt, and Kalipatnapu Y Rani. Correlations and estimation of pure liquid viscosity.Viscosity of Liquids: Theory, Estimation, Experiment, and Data, pages 135-405, 2007."
926,methyl propionate,CCC(=O)OC,311.81,0.003207081,0.3746,-0.426432227,0.902078581,0.16,22.62849505,7.552722813,17.12791761,18.71934905,8.799611877,31.35715842,"WE Wasburn. International critical tables of numerical data, physics, chemistry and technology. 1st electronic edition. Knovel: Norwich, NY, 2003."
927,methyl propionate,CCC(=O)OC,318.74,0.003137353,0.3477,-0.458795309,0.888748151,0.18,22.75113861,7.400446383,16.82766916,18.383231,8.640587063,31.48122772,"WE Wasburn. International critical tables of numerical data, physics, chemistry and technology. 1st electronic edition. Knovel: Norwich, NY, 2003."
928,methyl propionate,CCC(=O)OC,325.8,0.003069368,0.3254,-0.487582451,0.892604315,0.17,22.71644554,7.389752645,16.87768452,18.4247018,8.656036533,31.39974257,"WE Wasburn. International critical tables of numerical data, physics, chemistry and technology. 1st electronic edition. Knovel: Norwich, NY, 2003."
929,methyl propionate,CCC(=O)OC,333.52,0.002998321,0.3028,-0.518844129,0.878691725,0.23,22.82931683,7.247945523,16.56426304,18.08071452,8.497240336,31.64129703,"WE Wasburn. International critical tables of numerical data, physics, chemistry and technology. 1st electronic edition. Knovel: Norwich, NY, 2003."
930,methyl propionate,CCC(=O)OC,341.64,0.002927058,0.2812,-0.550984684,0.869372975,0.29,22.91222772,7.137261242,16.34654143,17.83692065,8.385267412,31.62681188,"WE Wasburn. International critical tables of numerical data, physics, chemistry and technology. 1st electronic edition. Knovel: Norwich, NY, 2003."
931,propionic anhydride,CCC(=O)OC(=O)CC,273.62,0.003654704,1.592,0.201943063,1.052077109,0.01,22.12953465,9.127960579,20.14650477,22.11801383,15.00728091,30.53665347,"WE Wasburn. International critical tables of numerical data, physics, chemistry and technology. 1st electronic edition. Knovel: Norwich, NY, 2003."
932,propionic anhydride,CCC(=O)OC(=O)CC,287.85,0.003474032,1.22,0.086359831,1.033631267,0.02,22.26037624,8.920440912,19.68912095,21.61579567,14.63273288,30.69258416,"WE Wasburn. International critical tables of numerical data, physics, chemistry and technology. 1st electronic edition. Knovel: Norwich, NY, 2003."
933,Propanoic anhydride,CCC(=O)OC(=O)CC,298.15,0.003354016,1.061,0.025715384,1.016532966,0.05,22.3799505,8.703041256,19.290429,21.16295264,14.29692821,30.89968317,"A Dean John et al. Lange's handbook of chemistry. In Universitas Of Tennese Knoxville, Fifthenth Edition, Mc. Graw Hill Inc, New York. Conference, 1999."
934,propionic anhydride,CCC(=O)OC(=O)CC,303.12,0.003299023,0.96,-0.017728767,1.021682066,0.01,22.34677228,8.730477545,19.37899165,21.25494147,14.35655264,30.89363366,"WE Wasburn. International critical tables of numerical data, physics, chemistry and technology. 1st electronic edition. Knovel: Norwich, NY, 2003."
935,Propionic anhydride,CCC(=O)OC(=O)CC,303.15,0.003298697,0.978,-0.009661145,1.022411547,0.02,22.3430198,8.734459056,19.38147553,21.25885013,14.35183457,30.7770396,"Sunghwan Kim, Paul A Thiessen, Tiejun Cheng, Jian Zhang, Asta Gindulyte, and Evan E Bolton. Pug-view: programmatic access to chemical annotations integrated in pubchem. Journal of cheminformatics, 11(1):1-11, 2019."
936,propionic anhydride,CCC(=O)OC(=O)CC,318.01,0.003144555,0.78,-0.107905397,1.006996302,0.05,22.45138614,8.520277907,18.99585508,20.81934095,14.02059438,30.98410891,"WE Wasburn. International critical tables of numerical data, physics, chemistry and technology. 1st electronic edition. Knovel: Norwich, NY, 2003."
937,Propionic anhydride,CCC(=O)OC(=O)CC,323.15,0.003094538,0.7511,-0.124302238,1.003355994,0.05,22.48227723,8.460138201,18.89580266,20.70342223,13.93017744,30.9909901,"Sunghwan Kim, Paul A Thiessen, Tiejun Cheng, Jian Zhang, Asta Gindulyte, and Evan E Bolton. Pug-view: programmatic access to chemical annotations integrated in pubchem. Journal of cheminformatics, 11(1):1-11, 2019."
938,propionic anhydride,CCC(=O)OC(=O)CC,332.67,0.003005982,0.651,-0.186419011,0.994058202,0.06,22.54931683,8.356111157,18.66489237,20.45019854,13.74729099,31.13405941,"WE Wasburn. International critical tables of numerical data, physics, chemistry and technology. 1st electronic edition. Knovel: Norwich, NY, 2003."
939,propionic anhydride,CCC(=O)OC(=O)CC,348.02,0.002873398,0.549,-0.260427656,0.980355409,0.13,22.65735644,8.155471008,18.31881723,20.05236309,13.44946995,31.26910891,"WE Wasburn. International critical tables of numerical data, physics, chemistry and technology. 1st electronic edition. Knovel: Norwich, NY, 2003."
940,propionic anhydride,CCC(=O)OC(=O)CC,368.02,0.002717244,0.45,-0.346787486,0.958604512,0.15,22.82456436,7.885088973,17.79159088,19.46080311,13.02025403,31.46508911,"WE Wasburn. International critical tables of numerical data, physics, chemistry and technology. 1st electronic edition. Knovel: Norwich, NY, 2003."
941,propionic anhydride,CCC(=O)OC(=O)CC,377.67,0.002647814,0.412,-0.385102784,0.944627189,0.19,22.94088119,7.725329374,17.47633804,19.1078929,12.77307596,31.7790099,"WE Wasburn. International critical tables of numerical data, physics, chemistry and technology. 1st electronic edition. Knovel: Norwich, NY, 2003."
942,propionic anhydride,CCC(=O)OC(=O)CC,392.72,0.002546343,0.361,-0.442492798,0.938973099,0.26,22.98381188,7.635054602,17.30190938,18.91187453,12.6284958,31.78430693,"WE Wasburn. International critical tables of numerical data, physics, chemistry and technology. 1st electronic edition. Knovel: Norwich, NY, 2003."
943,isobutyl propionate,CCC(=O)OCC(C)C,298.15,0.003354016,0.67,-0.173925197,0.878007136,0.09,22.04413861,4.982362341,16.90331874,17.62246654,11.59803576,30.31591089,"WE Wasburn. International critical tables of numerical data, physics, chemistry and technology. 1st electronic edition. Knovel: Norwich, NY, 2003."
944,"1,2,3-tris-(propionyloxy)-propane",CCC(=O)OCC(COC(=O)CC)OC(=O)CC,298.15,0.003354016,7.8,0.892094603,1.093648165,0.01,21.84118812,8.233834077,18.91485108,20.62944999,24.80045133,27.80390099,"Valentin Goussard, Francois Duprat, Jean-Luc Ploix, G erard Dreyfus, Veronique Nardello-Rataj, and Jean-Marie Aubry. A new machine-learning tool for fast estimation of liquid viscosity. application to cosmetic oils. Journal of Chemical Information and Modeling, 60(4):2012-2023, 2020."
945,"2,2-dimethylbutane",CCC(C)(C)C,273.15,0.003660992,0.477,-0.321481621,0.694366887,0.24,21.76105941,0.503997996,14.93452059,14.94304669,7.166385474,29.9929703,"WE Wasburn. International critical tables of numerical data, physics, chemistry and technology. 1st electronic edition. Knovel: Norwich, NY, 2003."
946,"2,2-dimethylbutane",CCC(C)(C)C,288.15,0.003470415,0.397,-0.401209493,0.676206627,0.41,21.95529703,0.471798601,14.43190071,14.43963673,6.923517835,30.14511881,"WE Wasburn. International critical tables of numerical data, physics, chemistry and technology. 1st electronic edition. Knovel: Norwich, NY, 2003."
947,"2,2-dimethylbutane",CCC(C)(C)C,293.15,0.003411223,0.375,-0.425968732,0.664642891,0.47,22.08345545,0.460332502,14.12361802,14.13114735,6.770831132,30.40269307,"WE Wasburn. International critical tables of numerical data, physics, chemistry and technology. 1st electronic edition. Knovel: Norwich, NY, 2003."
948,"2,3,3-trimethylpentane",CCC(C)(C)C(C)C,273.1,0.003661662,0.58,-0.236572006,0.746244432,0.2,21.39049505,0.447602697,15.32029566,15.32686317,9.137188704,29.37985149,"Diego Alonso Saldana, Laurie Starck, Pascal Mougin, Bernard Rousseau, Nicolas Ferrando, and Benoit Creton. Prediction of density and viscosity of biofuel compounds using machine learning methods. Energy & fuels, 26(4):2416-2426, 2012."
949,"2,3,3-trimethylpentane",CCC(C)(C)C(C)C,293.1,0.003411805,0.45,-0.346787486,0.729208542,0.22,21.55315842,0.4338325,14.84353036,14.84989672,8.838851697,29.53061386,"Diego Alonso Saldana, Laurie Starck, Pascal Mougin, Bernard Rousseau, Nicolas Ferrando, and Benoit Creton. Prediction of density and viscosity of biofuel compounds using machine learning methods. Energy & fuels, 26(4):2416-2426, 2012."
950,"2,3,3-trimethylpentane",CCC(C)(C)C(C)C,313.1,0.003193868,0.36,-0.443697499,0.716111885,0.36,21.68288119,0.41691732,14.46078228,14.46682765,8.601418148,29.81268317,"Diego Alonso Saldana, Laurie Starck, Pascal Mougin, Bernard Rousseau, Nicolas Ferrando, and Benoit Creton. Prediction of density and viscosity of biofuel compounds using machine learning methods. Energy & fuels, 26(4):2416-2426, 2012."
951,"3,3-dimethylpentane",CCC(C)(C)CC,293.1,0.003411805,0.8,-0.096910013,0.696653588,0.39,21.82161386,0.460682383,14.50155954,14.50891057,7.819287915,30.05492079,"Diego Alonso Saldana, Laurie Starck, Pascal Mougin, Bernard Rousseau, Nicolas Ferrando, and Benoit Creton. Prediction of density and viscosity of biofuel compounds using machine learning methods. Energy & fuels, 26(4):2416-2426, 2012."
952,tert-amyl alcohol,CCC(C)(C)O,273.64,0.003654436,13.7969,1.139781517,0.853514735,0.06,21.20832673,14.9414966,16.48731863,22.25077268,12.76491433,28.56645545,"WE Wasburn. International critical tables of numerical data, physics, chemistry and technology. 1st electronic edition. Knovel: Norwich, NY, 2003."
953,tert-amyl alcohol,CCC(C)(C)O,282.46,0.003540324,8.2034,0.913993888,0.837867819,0.1,21.33878218,14.486495,16.15067327,21.69608923,12.39771683,29.31533663,"WE Wasburn. International critical tables of numerical data, physics, chemistry and technology. 1st electronic edition. Knovel: Norwich, NY, 2003."
954,2-Methyl-2-butanol,CCC(C)(C)O,288.15,0.003470415,5.48,0.738780559,0.833110883,0.06,21.38412871,14.25209215,16.05069819,21.46561148,12.22507061,29.42434653,"A Dean John et al. Lange's handbook of chemistry. In Universitas Of Tennese Knoxville, Fifthenth Edition, Mc. Graw Hill Inc, New York. Conference, 1999."
955,tert-amyl alcohol,CCC(C)(C)O,291.63,0.003429003,4.9978,0.698778873,0.828544805,0.21,21.42457426,14.09789212,15.95454334,21.29121801,12.10658128,29.47178218,"WE Wasburn. International critical tables of numerical data, physics, chemistry and technology. 1st electronic edition. Knovel: Norwich, NY, 2003."
956,2-Methyl butanol-2,CCC(C)(C)O,291.65,0.003428767,5.0,0.698970004,0.829381581,0.09,21.41787129,14.07080849,15.97002837,21.28500334,12.08833137,29.52616832,"Dabir S Viswanath, Tushar K Ghosh, Dasika HL Prasad, Nidamarty VK Dutt, Kalipatnapu Y Rani, Dabir S Viswanath, Tushar K Ghosh, Dasika HL Prasad, Nidamarty VK Dutt, and Kalipatnapu Y Rani. Correlations and estimation of pure liquid viscosity.Viscosity of Liquids: Theory, Estimation, Experiment, and Data, pages 135-405, 2007."