Index,Name,CANON_SMILES,Temperature (K),Inverse temperature (1/K),Viscosity (cP),log(Viscosity),MD_density,MD_FV,MD_Rg,MD_SP_E,MD_SP_V,MD_SP,MD_HV,MD_RMSD,Reference
2276,Ethyl isobutyl ether,CCOCC(C)C,295.15,0.003388108,0.37,-0.431798276,0.749289598,0.27,22.08642574,3.324580238,15.20397209,15.56347466,8.481030107,30.44539604,"Dabir S Viswanath, Tushar K Ghosh, Dasika HL Prasad, Nidamarty VK Dutt, Kalipatnapu Y Rani, Dabir S Viswanath, Tushar K Ghosh, Dasika HL Prasad, Nidamarty VK Dutt, and Kalipatnapu Y Rani. Correlations and estimation of pure liquid viscosity.Viscosity of Liquids: Theory, Estimation, Experiment, and Data, pages 135-405, 2007."
2277,ethyl isobutyl ether,CCOCC(C)C,301.29,0.003319061,0.3454,-0.461677667,0.739314546,0.37,22.18972277,3.238823707,14.94324366,15.29046043,8.321495664,30.57815842,"WE Wasburn. International critical tables of numerical data, physics, chemistry and technology. 1st electronic edition. Knovel: Norwich, NY, 2003."
2278,ethyl isobutyl ether,CCOCC(C)C,308.54,0.003241071,0.32,-0.494850022,0.722816418,0.46,22.35547525,3.12069354,14.52665974,14.85834883,8.072034084,30.74441584,"WE Wasburn. International critical tables of numerical data, physics, chemistry and technology. 1st electronic edition. Knovel: Norwich, NY, 2003."
2279,ethyl isobutyl ether,CCOCC(C)C,314.91,0.00317551,0.2996,-0.523458191,0.719221613,0.69,22.39620792,3.101257497,14.42907968,14.75883626,8.021900764,30.77363366,"WE Wasburn. International critical tables of numerical data, physics, chemistry and technology. 1st electronic edition. Knovel: Norwich, NY, 2003."
2280,ethyl isobutyl ether,CCOCC(C)C,322.12,0.003104433,0.2791,-0.554240164,0.705183112,0.8,22.54484158,3.006580604,14.08360306,14.4011736,7.822310955,31.04618812,"WE Wasburn. International critical tables of numerical data, physics, chemistry and technology. 1st electronic edition. Knovel: Norwich, NY, 2003."
2281,ethyl isobutyl ether,CCOCC(C)C,329.14,0.003038221,0.2615,-0.582528307,0.692781,1.09,22.68344554,2.902147069,13.77012108,14.07291705,7.635365783,31.22879208,"WE Wasburn. International critical tables of numerical data, physics, chemistry and technology. 1st electronic edition. Knovel: Norwich, NY, 2003."
2282,ethyl isobutyl ether,CCOCC(C)C,336.32,0.002973359,0.244,-0.612610174,0.695640806,0.78,22.65331683,2.90469876,13.80995313,14.11238071,7.659970119,31.13944554,"WE Wasburn. International critical tables of numerical data, physics, chemistry and technology. 1st electronic edition. Knovel: Norwich, NY, 2003."
2283,ethyl isobutyl ether,CCOCC(C)C,343.81,0.002908583,0.228,-0.642065153,0.688987861,1.01,22.71983168,2.845079126,13.64349406,13.93725141,7.568240665,31.28580198,"WE Wasburn. International critical tables of numerical data, physics, chemistry and technology. 1st electronic edition. Knovel: Norwich, NY, 2003."
2284,ethyl isobutyl ether,CCOCC(C)C,350.63,0.002852009,0.2147,-0.668167956,0.679567465,1.28,22.8250297,2.793545192,13.40441834,13.69269273,7.434441763,31.47508911,"WE Wasburn. International critical tables of numerical data, physics, chemistry and technology. 1st electronic edition. Knovel: Norwich, NY, 2003."
2285,propylene glycol ethyl ether acetate,CCOCC(C)OC(C)=O,298.1,0.003354579,1.2,0.079181246,0.960928644,0.06,21.93155446,7.164478241,17.68029664,19.07693329,13.82487189,30.19433663,"Diego Alonso Saldana, Laurie Starck, Pascal Mougin, Bernard Rousseau, Nicolas Ferrando, and Benoit Creton. Prediction of density and viscosity of biofuel compounds using machine learning methods. Energy & fuels, 26(4):2416-2426, 2012."
2286,ethyl-3-ethoxypropionate,CCOCCC(=O)OCC,293.1,0.003411805,2.65,0.423245874,0.97409106,0.02,21.83070297,8.170392927,18.22344088,19.97138344,14.88894374,30.10520792,"Diego Alonso Saldana, Laurie Starck, Pascal Mougin, Bernard Rousseau, Nicolas Ferrando, and Benoit Creton. Prediction of density and viscosity of biofuel compounds using machine learning methods. Energy & fuels, 26(4):2416-2426, 2012."
2287,ethyl-3-ethoxypropionate,CCOCCC(=O)OCC,313.1,0.003193868,1.63,0.212187604,0.952801872,0.09,21.99633663,7.830453505,17.6826982,19.33906724,14.33683402,30.31836634,"Diego Alonso Saldana, Laurie Starck, Pascal Mougin, Bernard Rousseau, Nicolas Ferrando, and Benoit Creton. Prediction of density and viscosity of biofuel compounds using machine learning methods. Energy & fuels, 26(4):2416-2426, 2012."
2288,2-ethoxyethanol,CCOCCO,291.15,0.003434656,2.051162179,0.312,0.923617947,0.09,21.63034653,16.11065228,16.82527812,23.2950848,13.23406197,29.83953465,"Marina Cocchi, Pier Giuseppe De Benedetti, Renato Seeber, Lorenzo Tassi, and Alessandro Ulrici. Development of quantitative structure- property relationships using calculated descriptors for the prediction of the physicochemical properties of a series of organic solvents. Journal of chemical information and computer sciences, 39(6):1190-1203, 1999."
2289,2-Ethoxyethanol,CCOCCO,293.15,0.003411223,2.04,0.309630167,0.924140899,0.04,21.62805941,16.09241126,16.82599394,23.28324721,13.21813336,29.85885149,"A Dean John et al. Lange's handbook of chemistry. In Universitas Of Tennese Knoxville, Fifthenth Edition, Mc. Graw Hill Inc, New York. Conference, 1999."
2290,Ethylene glycol monoethyl ether acetate,CCOCCOC(C)=O,293.15,0.003411223,1.32,0.120573931,0.99434164,0.04,21.90573267,8.965343475,18.33049825,20.40566571,13.80990319,30.236,"Sunghwan Kim, Paul A Thiessen, Tiejun Cheng, Jian Zhang, Asta Gindulyte, and Evan E Bolton. Pug-view: programmatic access to chemical annotations integrated in pubchem. Journal of cheminformatics, 11(1):1-11, 2019."
2291,2-Ethoxyethyl acetate,CCOCCOC(C)=O,298.15,0.003354016,1.1,0.041392685,0.999887041,0.02,21.86215842,8.996608657,18.41609698,20.49634152,13.86363164,30.16065347,"Valentin Goussard, Francois Duprat, Jean-Luc Ploix, G erard Dreyfus, Veronique Nardello-Rataj, and Jean-Marie Aubry. A new machine-learning tool for fast estimation of liquid viscosity. application to cosmetic oils. Journal of Chemical Information and Modeling, 60(4):2012-2023, 2020."
2292,Diethylene glycol diethyl ether,CCOCCOCCOCC,298.15,0.003354016,1.3,0.113943352,0.910588332,0.12,21.68682178,7.538528146,16.99240754,18.58990588,15.30789893,29.87667327,"Valentin Goussard, Francois Duprat, Jean-Luc Ploix, G erard Dreyfus, Veronique Nardello-Rataj, and Jean-Marie Aubry. A new machine-learning tool for fast estimation of liquid viscosity. application to cosmetic oils. Journal of Chemical Information and Modeling, 60(4):2012-2023, 2020."
2293,Triethylene glycol monoethyl ether,CCOCCOCCOCCO,293.15,0.003411223,7.8,0.892094603,1.022958731,0.01,21.28810891,14.52738285,17.99703855,23.12911429,22.85924027,27.6340396,"Sunghwan Kim, Paul A Thiessen, Tiejun Cheng, Jian Zhang, Asta Gindulyte, and Evan E Bolton. Pug-view: programmatic access to chemical annotations integrated in pubchem. Journal of cheminformatics, 11(1):1-11, 2019."
2294,Diethoxymethane,CCOCOCC,298.15,0.003354016,0.45,-0.346787486,0.826272233,0.24,22.26966337,4.68935714,15.75279866,16.43621067,8.731012593,30.67976238,"Valentin Goussard, Francois Duprat, Jean-Luc Ploix, G erard Dreyfus, Veronique Nardello-Rataj, and Jean-Marie Aubry. A new machine-learning tool for fast estimation of liquid viscosity. application to cosmetic oils. Journal of Chemical Information and Modeling, 60(4):2012-2023, 2020."
2295,Diethyl ethyl phosphonate,CCOP(=O)(CC)OCC,288.15,0.003470415,1.627,0.211387553,1.037454546,0.04,21.98885149,8.324780443,17.54797112,19.42263117,15.01282789,30.23369307,"A Dean John et al. Lange's handbook of chemistry. In Universitas Of Tennese Knoxville, Fifthenth Edition, Mc. Graw Hill Inc, New York. Conference, 1999."
2296,Diethyl ethyl phosphonate,CCOP(=O)(CC)OCC,318.15,0.003143171,0.969,-0.013676223,1.005629499,0.06,22.22113861,7.909409352,16.80573856,18.57417274,14.25634939,30.63186139,"A Dean John et al. Lange's handbook of chemistry. In Universitas Of Tennese Knoxville, Fifthenth Edition, Mc. Graw Hill Inc, New York. Conference, 1999."
2297,Diethyl ethyl phosphonate,CCOP(=O)(CC)OCC,338.15,0.002957267,0.743,-0.129011186,0.971399592,0.23,22.48018812,7.522066334,16.06615468,17.7400361,13.53784413,30.95242574,"A Dean John et al. Lange's handbook of chemistry. In Universitas Of Tennese Knoxville, Fifthenth Edition, Mc. Graw Hill Inc, New York. Conference, 1999."
2298,Triethyl phosphate,CCOP(=O)(OCC)OCC,313.15,0.003193358,1.684,0.226342087,1.072660635,0.04,22.1439901,8.621548613,17.45170903,19.46532709,16.00076242,30.48385149,"A Dean John et al. Lange's handbook of chemistry. In Universitas Of Tennese Knoxville, Fifthenth Edition, Mc. Graw Hill Inc, New York. Conference, 1999."
2299,Triethyl phosphate,CCOP(=O)(OCC)OCC,328.15,0.003047387,1.376,0.138618434,1.044890956,0.12,22.33038614,8.315258095,16.87142658,18.80946859,15.39337081,30.71609901,"A Dean John et al. Lange's handbook of chemistry. In Universitas Of Tennese Knoxville, Fifthenth Edition, Mc. Graw Hill Inc, New York. Conference, 1999."
2300,Parathion,CCOP(=S)(OCC)Oc1ccc([N+](=O)[O-])cc1,298.15,0.003354016,15.3,1.184691431,1.256346838,0.02,22.91241584,9.401465232,19.64138497,21.7755908,26.86618802,27.37748515,"A Dean John et al. Lange's handbook of chemistry. In Universitas Of Tennese Knoxville, Fifthenth Edition, Mc. Graw Hill Inc, New York. Conference, 1999."
2301,Triethyl phosphite,CCOP(OCC)OCC,298.15,0.003354016,0.72,-0.142667504,0.977307231,0.06,22.43241584,5.538837202,17.35656069,18.21911528,14.08058742,30.93741584,"A Dean John et al. Lange's handbook of chemistry. In Universitas Of Tennese Knoxville, Fifthenth Edition, Mc. Graw Hill Inc, New York. Conference, 1999."
2302,Diethylsulfate,CCOS(=O)(=O)OCC,293.15,0.003411223,1.79,0.252853031,1.191745484,0.03,22.4609604,10.39560862,18.9210044,21.58882612,14.99448321,31.03140594,"Sunghwan Kim, Paul A Thiessen, Tiejun Cheng, Jian Zhang, Asta Gindulyte, and Evan E Bolton. Pug-view: programmatic access to chemical annotations integrated in pubchem. Journal of cheminformatics, 11(1):1-11, 2019."
2303,triethoxysilane,CCO[SiH](OCC)OCC,298.15,0.003354016,0.51,-0.292429824,0.907256698,0.21,22.62227723,4.883594254,15.3603193,16.11823904,11.83573346,31.19012871,"Valentin Goussard, Francois Duprat, Jean-Luc Ploix, G erard Dreyfus, Veronique Nardello-Rataj, and Jean-Marie Aubry. A new machine-learning tool for fast estimation of liquid viscosity. application to cosmetic oils. Journal of Chemical Information and Modeling, 60(4):2012-2023, 2020."
2304,Ethyl silicate,CCO[Si](OCC)(OCC)OCC,298.15,0.003354016,0.6,-0.22184875,0.940118057,0.2,22.35457426,3.843349378,15.39967316,15.87222907,13.93550808,30.63688119,"Sunghwan Kim, Paul A Thiessen, Tiejun Cheng, Jian Zhang, Asta Gindulyte, and Evan E Bolton. Pug-view: programmatic access to chemical annotations integrated in pubchem. Journal of cheminformatics, 11(1):1-11, 2019."
2305,phenetole,CCOc1ccccc1,273.15,0.003660992,1.86,0.269512944,1.000135989,0.03,22.03729703,7.964789432,19.04520419,20.64371642,12.98446688,30.38760396,"WE Wasburn. International critical tables of numerical data, physics, chemistry and technology. 1st electronic edition. Knovel: Norwich, NY, 2003."
2306,phenetole,CCOc1ccccc1,283.05,0.003532945,1.53,0.184691431,0.98144153,0.03,22.17473267,7.713744049,18.62333063,20.15777489,12.65126846,30.63829703,"WE Wasburn. International critical tables of numerical data, physics, chemistry and technology. 1st electronic edition. Knovel: Norwich, NY, 2003."
2307,Ethoxybenzene (phenetol),CCOc1ccccc1,288.15,0.003470415,1.364,0.13481437,0.981671015,0.02,22.17055446,7.660744987,18.60781212,20.12321782,12.61719391,30.64674257,"A Dean John et al. Lange's handbook of chemistry. In Universitas Of Tennese Knoxville, Fifthenth Edition, Mc. Graw Hill Inc, New York. Conference, 1999."
2308,phenetole,CCOc1ccccc1,293.35,0.003408897,1.24,0.093421685,0.981986991,0.04,22.16963366,7.620037981,18.58267443,20.08446569,12.57731166,30.68236634,"WE Wasburn. International critical tables of numerical data, physics, chemistry and technology. 1st electronic edition. Knovel: Norwich, NY, 2003."
2309,phenetole,CCOc1ccccc1,302.75,0.003303055,1.03,0.012837225,0.971449083,0.05,22.25010891,7.452021893,18.34079098,19.79701745,12.38152407,30.71036634,"WE Wasburn. International critical tables of numerical data, physics, chemistry and technology. 1st electronic edition. Knovel: Norwich, NY, 2003."
2310,phenetole,CCOc1ccccc1,313.15,0.003193358,0.875,-0.057991947,0.956630694,0.08,22.36760396,7.220771622,17.98748834,19.38286169,12.08939612,30.80288119,"WE Wasburn. International critical tables of numerical data, physics, chemistry and technology. 1st electronic edition. Knovel: Norwich, NY, 2003."
2311,phenetole,CCOc1ccccc1,318.15,0.003143171,0.833,-0.079354999,0.953092456,0.07,22.39462376,7.152690622,17.89374457,19.27057511,12.00895214,30.99616832,"WE Wasburn. International critical tables of numerical data, physics, chemistry and technology. 1st electronic edition. Knovel: Norwich, NY, 2003."
2312,phenetole,CCOc1ccccc1,333.15,0.003001651,0.687,-0.163043263,0.932738595,0.13,22.55467327,6.858240061,17.41136204,18.71355912,11.62466907,31.0519505,"WE Wasburn. International critical tables of numerical data, physics, chemistry and technology. 1st electronic edition. Knovel: Norwich, NY, 2003."
2313,phenetole,CCOc1ccccc1,353.15,0.002831658,0.558,-0.253365801,0.914628367,0.19,22.70328713,6.552596769,16.97633106,18.19724882,11.27313585,31.40259406,"WE Wasburn. International critical tables of numerical data, physics, chemistry and technology. 1st electronic edition. Knovel: Norwich, NY, 2003."
2314,Ethyl methyl sulfide,CCSC,293.15,0.003411223,0.373,-0.428291168,0.851188331,0.14,23.13546535,6.878118079,17.21099266,18.53461188,7.929008582,32.08332673,"A Dean John et al. Lange's handbook of chemistry. In Universitas Of Tennese Knoxville, Fifthenth Edition, Mc. Graw Hill Inc, New York. Conference, 1999."
2315,Ethyl methyl sulfide,CCSC,298.15,0.003354016,0.354,-0.450996738,0.846072405,0.13,23.18419802,6.819427225,17.08753386,18.39814386,7.874939398,32.1010198,"A Dean John et al. Lange's handbook of chemistry. In Universitas Of Tennese Knoxville, Fifthenth Edition, Mc. Graw Hill Inc, New York. Conference, 1999."
2316,ethyl thiocyanate,CCSC#N,273.15,0.003660992,1.105,0.043362278,0.988562909,0.04,24.45816832,9.583274221,18.25369021,20.61646946,9.497781651,33.94966337,"WE Wasburn. International critical tables of numerical data, physics, chemistry and technology. 1st electronic edition. Knovel: Norwich, NY, 2003."
2317,ethyl thiocyanate,CCSC#N,298.15,0.003354016,0.779,-0.108462542,0.969915464,0.12,24.61030693,9.329337568,17.78104516,20.07995196,9.250765298,34.13654455,"WE Wasburn. International critical tables of numerical data, physics, chemistry and technology. 1st electronic edition. Knovel: Norwich, NY, 2003."
2318,ethyl sulfide,CCSCC,273.36,0.00365818,0.5575,-0.253755128,0.868272325,0.07,22.58338614,6.297723528,17.58622571,18.67994217,9.205826891,31.145,"WE Wasburn. International critical tables of numerical data, physics, chemistry and technology. 1st electronic edition. Knovel: Norwich, NY, 2003."
2319,ethyl sulfide,CCSCC,281.47,0.003552776,0.5064,-0.295506303,0.85905326,0.08,22.66287129,6.192890053,17.35016526,18.42236099,9.075117799,31.27913861,"WE Wasburn. International critical tables of numerical data, physics, chemistry and technology. 1st electronic edition. Knovel: Norwich, NY, 2003."
2320,ethyl sulfide,CCSCC,289.0,0.003460208,0.4652,-0.332360294,0.853721069,0.07,22.70687129,6.117627575,17.20058427,18.25620248,8.989390638,31.37823762,"WE Wasburn. International critical tables of numerical data, physics, chemistry and technology. 1st electronic edition. Knovel: Norwich, NY, 2003."
2321,ethyl sulfide,CCSCC,297.79,0.003358071,0.4233,-0.373351732,0.844741005,0.17,22.79120792,6.009877241,16.96422149,17.9974445,8.856942942,31.4759802,"WE Wasburn. International critical tables of numerical data, physics, chemistry and technology. 1st electronic edition. Knovel: Norwich, NY, 2003."
2322,ethyl sulfide,CCSCC,305.78,0.003270325,0.3901,-0.40882405,0.836582053,0.17,22.85837624,5.92446109,16.75943186,17.77586911,8.749201294,31.51905941,"WE Wasburn. International critical tables of numerical data, physics, chemistry and technology. 1st electronic edition. Knovel: Norwich, NY, 2003."
2323,ethyl sulfide,CCSCC,313.34,0.003191421,0.3623,-0.440931666,0.824314324,0.26,22.97461386,5.789431681,16.45769436,17.44645006,8.581968647,31.77760396,"WE Wasburn. International critical tables of numerical data, physics, chemistry and technology. 1st electronic edition. Knovel: Norwich, NY, 2003."
2324,ethyl sulfide,CCSCC,320.9,0.003116236,0.3374,-0.471854922,0.817461244,0.27,23.04160396,5.700882784,16.28218716,17.25152645,8.485389376,31.81064356,"WE Wasburn. International critical tables of numerical data, physics, chemistry and technology. 1st electronic edition. Knovel: Norwich, NY, 2003."
2325,ethyl sulfide,CCSCC,329.64,0.003033612,0.3118,-0.506123889,0.80888573,0.33,23.11982178,5.605945625,16.06494976,17.01510096,8.370060104,32.01588119,"WE Wasburn. International critical tables of numerical data, physics, chemistry and technology. 1st electronic edition. Knovel: Norwich, NY, 2003."
2326,ethyl sulfide,CCSCC,336.65,0.002970444,0.2933,-0.532687937,0.803451936,0.33,23.17547525,5.540922556,15.91427237,16.85142753,8.287464953,32.02258416,"WE Wasburn. International critical tables of numerical data, physics, chemistry and technology. 1st electronic edition. Knovel: Norwich, NY, 2003."
2327,ethyl sulfide,CCSCC,344.4,0.0029036,0.2749,-0.56082526,0.782298654,0.62,23.37316832,5.368079116,15.43187882,16.33907094,8.04031042,32.29757426,"WE Wasburn. International critical tables of numerical data, physics, chemistry and technology. 1st electronic edition. Knovel: Norwich, NY, 2003."
2328,ethyl sulfide,CCSCC,353.46,0.002829174,0.2555,-0.592609096,0.783419812,0.61,23.36671287,5.331574516,15.42092299,16.31679145,8.027779249,32.27076238,"WE Wasburn. International critical tables of numerical data, physics, chemistry and technology. 1st electronic edition. Knovel: Norwich, NY, 2003."
2329,ethyl sulfide,CCSCC,361.14,0.002769009,0.2406,-0.618704377,0.764523662,0.73,23.55380198,5.176910349,14.98770707,15.85677298,7.806798376,32.48176238,"WE Wasburn. International critical tables of numerical data, physics, chemistry and technology. 1st electronic edition. Knovel: Norwich, NY, 2003."
2330,nitroethane,CC[N+](=O)[O-],322.15,0.003104144,0.660693448,-0.18,0.987097017,0.2,23.28522772,12.49427175,17.29012505,21.33209865,8.911278078,32.307,"Marina Cocchi, Pier Giuseppe De Benedetti, Renato Seeber, Lorenzo Tassi, and Alessandro Ulrici. Development of quantitative structure- property relationships using calculated descriptors for the prediction of the physicochemical properties of a series of organic solvents. Journal of chemical information and computer sciences, 39(6):1190-1203, 1999."
2331,triethylsilane,CC[SiH](CC)CC,298.15,0.003354016,0.39,-0.408935393,0.69541389,0.77,22.9429901,0.663712649,13.1601789,13.17739253,7.531952811,31.5030198,"Valentin Goussard, Francois Duprat, Jean-Luc Ploix, G erard Dreyfus, Veronique Nardello-Rataj, and Jean-Marie Aubry. A new machine-learning tool for fast estimation of liquid viscosity. application to cosmetic oils. Journal of Chemical Information and Modeling, 60(4):2012-2023, 2020."
2332,"6,8-diethyl-2,2,4,4,6,8,10,10,12,12-decamethyl-5,7,9-trioxa-2,4,6,8,10,12-hexasila-tridecane",CC[Si](C)(O[Si](C)(C)C[Si](C)(C)C)O[Si](C)(CC)O[Si](C)(C)C[Si](C)(C)C,298.15,0.003354016,4.8,0.681241237,0.881547755,0.27,22.78584158,0.547009014,12.2750833,12.28764089,20.3688986,30.94861386,"Valentin Goussard, Francois Duprat, Jean-Luc Ploix, G erard Dreyfus, Veronique Nardello-Rataj, and Jean-Marie Aubry. A new machine-learning tool for fast estimation of liquid viscosity. application to cosmetic oils. Journal of Chemical Information and Modeling, 60(4):2012-2023, 2020."