Index,Name,CANON_SMILES,Temperature (K),Inverse temperature (1/K),Viscosity (cP),log(Viscosity),MD_density,MD_FV,MD_Rg,MD_SP_E,MD_SP_V,MD_SP,MD_HV,MD_RMSD,Reference
495,"l,2-dibromopropane",CC(Br)CBr,298.42,0.003350982,1.494,0.174350598,2.048281023,0.02,24.60191089,7.638142144,19.48064674,20.9247664,10.90803787,34.00832673,"WE Wasburn. International critical tables of numerical data, physics, chemistry and technology. 1st electronic edition. Knovel: Norwich, NY, 2003."
496,"l,2-dibromopropane",CC(Br)CBr,311.17,0.003213677,1.247,0.095866453,2.023744312,0.03,24.70312871,7.578405392,19.17884076,20.62202237,10.75852006,34.20387129,"WE Wasburn. International critical tables of numerical data, physics, chemistry and technology. 1st electronic edition. Knovel: Norwich, NY, 2003."
497,"l,2-dibromopropane",CC(Br)CBr,323.23,0.003093772,1.072,0.030194785,1.991338314,0.04,24.83389109,7.423378354,18.79715117,20.21005444,10.53987523,34.41875248,"WE Wasburn. International critical tables of numerical data, physics, chemistry and technology. 1st electronic edition. Knovel: Norwich, NY, 2003."
498,"l,2-dibromopropane",CC(Br)CBr,336.34,0.002973182,0.918,-0.037157319,1.966135516,0.08,24.94747525,7.291995105,18.48447917,19.87109692,10.35938254,34.5219901,"WE Wasburn. International critical tables of numerical data, physics, chemistry and technology. 1st electronic edition. Knovel: Norwich, NY, 2003."
499,"l,2-dibromopropane",CC(Br)CBr,349.61,0.00286033,0.797,-0.098541679,1.930301001,0.11,25.09452475,7.077212073,18.07453517,19.4109036,10.11375809,34.79539604,"WE Wasburn. International critical tables of numerical data, physics, chemistry and technology. 1st electronic edition. Knovel: Norwich, NY, 2003."
500,"l,2-dibromopropane",CC(Br)CBr,362.28,0.002760296,0.704,-0.152427341,1.893834218,0.17,25.25392079,6.917049457,17.66150544,18.96794876,9.887141632,34.96047525,"WE Wasburn. International critical tables of numerical data, physics, chemistry and technology. 1st electronic edition. Knovel: Norwich, NY, 2003."
501,"l,2-dibromopropane",CC(Br)CBr,374.33,0.00267144,0.628,-0.202040356,1.884638639,0.26,25.29522772,6.874477039,17.52653837,18.82675122,9.819182935,34.98579208,"WE Wasburn. International critical tables of numerical data, physics, chemistry and technology. 1st electronic edition. Knovel: Norwich, NY, 2003."
502,"l,2-dibromopropane",CC(Br)CBr,386.86,0.002584914,0.565,-0.247951552,1.850256593,0.33,25.45506931,6.711206541,17.13822279,18.4056984,9.603873242,35.20489109,"WE Wasburn. International critical tables of numerical data, physics, chemistry and technology. 1st electronic edition. Knovel: Norwich, NY, 2003."
503,"l,2-dibromopropane",CC(Br)CBr,401.12,0.00249302,0.501,-0.300162274,1.817976562,0.49,25.59755446,6.549054952,16.76517027,17.99914216,9.396237921,35.38367327,"WE Wasburn. International critical tables of numerical data, physics, chemistry and technology. 1st electronic edition. Knovel: Norwich, NY, 2003."
504,"1,2-dibromo-2-methylpropane",CC(C)(Br)CBr,273.54,0.003655772,3.29,0.517195898,1.934051905,0.01,23.66857426,6.837502109,19.42658992,20.59485075,11.86127418,32.37106931,"WE Wasburn. International critical tables of numerical data, physics, chemistry and technology. 1st electronic edition. Knovel: Norwich, NY, 2003."
505,"1,2-dibromo-2-methylpropane",CC(C)(Br)CBr,286.82,0.003486507,2.456,0.390228363,1.902497121,0.04,23.79638614,6.667994299,19.01019327,20.14584762,11.57917573,32.91856436,"WE Wasburn. International critical tables of numerical data, physics, chemistry and technology. 1st electronic edition. Knovel: Norwich, NY, 2003."
506,"1,2-dibromo-2-methylpropane",CC(C)(Br)CBr,300.09,0.003332334,1.916,0.282395505,1.88576158,0.04,23.86563366,6.593842398,18.77739323,19.90164619,11.43561661,32.91541584,"WE Wasburn. International critical tables of numerical data, physics, chemistry and technology. 1st electronic edition. Knovel: Norwich, NY, 2003."
507,"1,2-dibromo-2-methylpropane",CC(C)(Br)CBr,313.95,0.003185221,1.528,0.184123354,1.858350691,0.06,23.97669307,6.48957258,18.41654915,19.52666666,11.21246169,33.1470297,"WE Wasburn. International critical tables of numerical data, physics, chemistry and technology. 1st electronic edition. Knovel: Norwich, NY, 2003."
508,"1,2-dibromo-2-methylpropane",CC(C)(Br)CBr,326.33,0.003064383,1.274,0.105169428,1.828610221,0.08,24.11165347,6.377230936,18.04758858,19.14134829,10.98878018,33.32991089,"WE Wasburn. International critical tables of numerical data, physics, chemistry and technology. 1st electronic edition. Knovel: Norwich, NY, 2003."
509,"1,2-dibromo-2-methylpropane",CC(C)(Br)CBr,340.05,0.002940744,1.065,0.027349608,1.799580008,0.17,24.23840594,6.138016045,17.67459627,18.71026952,10.71493473,33.5140396,"WE Wasburn. International critical tables of numerical data, physics, chemistry and technology. 1st electronic edition. Knovel: Norwich, NY, 2003."
510,"1,2-dibromo-2-methylpropane",CC(C)(Br)CBr,353.75,0.002826855,0.903,-0.04431225,1.796497136,0.17,24.25632673,6.207566139,17.59399445,18.65712272,10.70233823,33.42563366,"WE Wasburn. International critical tables of numerical data, physics, chemistry and technology. 1st electronic edition. Knovel: Norwich, NY, 2003."
511,"1,2-dibromo-2-methylpropane",CC(C)(Br)CBr,366.78,0.00272643,0.781,-0.107348966,1.762349358,0.19,24.40688119,5.989484531,17.18845308,18.20233502,10.43110655,33.66778218,"WE Wasburn. International critical tables of numerical data, physics, chemistry and technology. 1st electronic edition. Knovel: Norwich, NY, 2003."
512,"1,2-dibromo-2-methylpropane",CC(C)(Br)CBr,380.3,0.002629503,0.68,-0.167491087,1.732670577,0.32,24.54811881,5.863439416,16.80910544,17.80268666,10.19560724,33.92306931,"WE Wasburn. International critical tables of numerical data, physics, chemistry and technology. 1st electronic edition. Knovel: Norwich, NY, 2003."
513,"1,2-dibromo-2-methylpropane",CC(C)(Br)CBr,394.89,0.002532351,0.593,-0.226945307,1.705763952,0.33,24.6800396,5.751792101,16.47822279,17.45361744,10.00117359,34.14159406,"WE Wasburn. International critical tables of numerical data, physics, chemistry and technology. 1st electronic edition. Knovel: Norwich, NY, 2003."
514,"2,2-Dimethylpropane",CC(C)(C)C,273.15,0.003660992,0.328,-0.484126156,0.648248712,0.39,22.14836634,0.481129531,14.28814161,14.29627209,5.979720922,30.54165347,"A Dean John et al. Lange's handbook of chemistry. In Universitas Of Tennese Knoxville, Fifthenth Edition, Mc. Graw Hill Inc, New York. Conference, 1999."
515,"2,2,4,4-tetramethylpentane",CC(C)(C)CC(C)(C)C,298.15,0.003354016,0.75,-0.124938737,0.747491532,0.29,21.42083168,0.440057874,14.92438912,14.93090176,9.734889245,29.31016832,"Valentin Goussard, Francois Duprat, Jean-Luc Ploix, G erard Dreyfus, Veronique Nardello-Rataj, and Jean-Marie Aubry. A new machine-learning tool for fast estimation of liquid viscosity. application to cosmetic oils. Journal of Chemical Information and Modeling, 60(4):2012-2023, 2020."
516,Neopentyl alcohol,CC(C)(C)CO,293.15,0.003411223,2.5,0.397940009,0.827987063,0.09,21.42155446,14.73615688,15.56265503,21.43288449,12.2713627,29.50569307,"Sunghwan Kim, Paul A Thiessen, Tiejun Cheng, Jian Zhang, Asta Gindulyte, and Evan E Bolton. Pug-view: programmatic access to chemical annotations integrated in pubchem. Journal of cheminformatics, 11(1):1-11, 2019."
517,2-Chloro-2-methylpropane,CC(C)(C)Cl,288.15,0.003470415,0.543,-0.26520017,0.909116084,0.16,22.9460198,6.208771887,15.92007818,17.08806753,7.678805354,31.60485149,"A Dean John et al. Lange's handbook of chemistry. In Universitas Of Tennese Knoxville, Fifthenth Edition, Mc. Graw Hill Inc, New York. Conference, 1999."
518,tert-butyl alcohol,CC(C)(C)O,295.56,0.003383408,5.887,0.769894036,0.827539965,0.15,21.49556436,16.20168406,15.84928676,22.66515815,11.58479106,29.60661386,"WE Wasburn. International critical tables of numerical data, physics, chemistry and technology. 1st electronic edition. Knovel: Norwich, NY, 2003."
519,2-methyl-2-propanol,CC(C)(C)O,295.6,0.00338295,5.89,0.770115295,0.817724516,0.17,21.57952475,16.03806282,15.6437004,22.40454149,11.46241554,29.74780198,"Diego Alonso Saldana, Laurie Starck, Pascal Mougin, Bernard Rousseau, Nicolas Ferrando, and Benoit Creton. Prediction of density and viscosity of biofuel compounds using machine learning methods. Energy & fuels, 26(4):2416-2426, 2012."
520,2-methyl-2-propanol,CC(C)(C)O,298.1,0.003354579,4.44,0.64738297,0.818656551,0.17,21.57571287,15.98231439,15.65505937,22.37251806,11.42395282,29.78732673,"Diego Alonso Saldana, Laurie Starck, Pascal Mougin, Bernard Rousseau, Nicolas Ferrando, and Benoit Creton. Prediction of density and viscosity of biofuel compounds using machine learning methods. Energy & fuels, 26(4):2416-2426, 2012."
521,2-methyl-2-propanol,CC(C)(C)O,299.6,0.003337784,4.17,0.620136055,0.822040662,0.21,21.53494059,16.00938331,15.73136685,22.44534746,11.4526932,29.70693069,"Diego Alonso Saldana, Laurie Starck, Pascal Mougin, Bernard Rousseau, Nicolas Ferrando, and Benoit Creton. Prediction of density and viscosity of biofuel compounds using machine learning methods. Energy & fuels, 26(4):2416-2426, 2012."
522,2-methyl-2-propanol,CC(C)(C)O,303.1,0.003299241,3.38,0.5289167,0.809549273,0.24,21.64779208,15.68055882,15.48489657,22.03821127,11.23085613,29.85341584,"Diego Alonso Saldana, Laurie Starck, Pascal Mougin, Bernard Rousseau, Nicolas Ferrando, and Benoit Creton. Prediction of density and viscosity of biofuel compounds using machine learning methods. Energy & fuels, 26(4):2416-2426, 2012."
523,2-methyl-2-propanol,CC(C)(C)O,305.2,0.00327654,3.0,0.477121255,0.814940771,0.11,21.59935644,15.73035594,15.58352287,22.14292374,11.26531869,29.74911881,"Diego Alonso Saldana, Laurie Starck, Pascal Mougin, Bernard Rousseau, Nicolas Ferrando, and Benoit Creton. Prediction of density and viscosity of biofuel compounds using machine learning methods. Energy & fuels, 26(4):2416-2426, 2012."
524,tert-butyl alcohol,CC(C)(C)O,305.23,0.003276218,3.004,0.477699928,0.813234869,0.13,21.6109505,15.68971752,15.5691876,22.10401947,11.25021464,29.79264356,"WE Wasburn. International critical tables of numerical data, physics, chemistry and technology. 1st electronic edition. Knovel: Norwich, NY, 2003."
525,2-methyl-2-propanol,CC(C)(C)O,308.1,0.003245699,2.59,0.413299764,0.806387371,0.23,21.67434653,15.49424457,15.41399692,21.85596477,11.10674323,29.84788119,"Diego Alonso Saldana, Laurie Starck, Pascal Mougin, Bernard Rousseau, Nicolas Ferrando, and Benoit Creton. Prediction of density and viscosity of biofuel compounds using machine learning methods. Energy & fuels, 26(4):2416-2426, 2012."
526,tert-butyl alcohol,CC(C)(C)O,310.37,0.003221961,2.367,0.374198258,0.804963442,0.22,21.6850099,15.40410236,15.3981613,21.78090439,11.05771887,29.87339604,"WE Wasburn. International critical tables of numerical data, physics, chemistry and technology. 1st electronic edition. Knovel: Norwich, NY, 2003."
527,2-methyl-2-propanol,CC(C)(C)O,310.4,0.003221649,2.37,0.374748346,0.80797981,0.33,21.6590495,15.4365441,15.46881774,21.8537616,11.08850165,29.89339604,"Diego Alonso Saldana, Laurie Starck, Pascal Mougin, Bernard Rousseau, Nicolas Ferrando, and Benoit Creton. Prediction of density and viscosity of biofuel compounds using machine learning methods. Energy & fuels, 26(4):2416-2426, 2012."
528,2-methyl-2-propanol,CC(C)(C)O,313.1,0.003193868,2.05,0.311753861,0.805949715,0.2,21.68736634,15.37514563,15.39905608,21.76109891,11.03137466,29.95973267,"Diego Alonso Saldana, Laurie Starck, Pascal Mougin, Bernard Rousseau, Nicolas Ferrando, and Benoit Creton. Prediction of density and viscosity of biofuel compounds using machine learning methods. Energy & fuels, 26(4):2416-2426, 2012."
529,tert-butyl alcohol,CC(C)(C)O,315.56,0.003168969,1.909,0.280805928,0.807914512,0.15,21.65963366,15.3059118,15.45345497,21.75094634,11.00134278,29.86172277,"WE Wasburn. International critical tables of numerical data, physics, chemistry and technology. 1st electronic edition. Knovel: Norwich, NY, 2003."
530,2-methyl-2-propanol,CC(C)(C)O,315.6,0.003168568,1.91,0.281033367,0.794485239,0.36,21.79177228,15.08030117,15.18163319,21.3989392,10.83810962,30.01535644,"Diego Alonso Saldana, Laurie Starck, Pascal Mougin, Bernard Rousseau, Nicolas Ferrando, and Benoit Creton. Prediction of density and viscosity of biofuel compounds using machine learning methods. Energy & fuels, 26(4):2416-2426, 2012."
531,tert-butyl alcohol,CC(C)(C)O,320.97,0.003115556,1.55,0.190331698,0.794653026,0.29,21.78035644,14.9419076,15.18493734,21.30394349,10.75617911,29.99118812,"WE Wasburn. International critical tables of numerical data, physics, chemistry and technology. 1st electronic edition. Knovel: Norwich, NY, 2003."
532,2-methyl-2-propanol,CC(C)(C)O,321.0,0.003115265,1.55,0.190331698,0.799910196,0.19,21.74270297,15.04100583,15.30234811,21.45724687,10.83489767,30.03162376,"Diego Alonso Saldana, Laurie Starck, Pascal Mougin, Bernard Rousseau, Nicolas Ferrando, and Benoit Creton. Prediction of density and viscosity of biofuel compounds using machine learning methods. Energy & fuels, 26(4):2416-2426, 2012."
533,2-methyl-2-propanol,CC(C)(C)O,326.1,0.003066544,1.3,0.113943352,0.784402441,0.34,21.8629703,14.61339791,14.97357912,20.9230698,10.53531326,30.2029703,"Diego Alonso Saldana, Laurie Starck, Pascal Mougin, Bernard Rousseau, Nicolas Ferrando, and Benoit Creton. Prediction of density and viscosity of biofuel compounds using machine learning methods. Energy & fuels, 26(4):2416-2426, 2012."
534,tert-butyl alcohol,CC(C)(C)O,326.14,0.003066168,1.296,0.112605002,0.783796771,0.35,21.88338614,14.57445143,14.97541046,20.89736219,10.51877457,30.26587129,"WE Wasburn. International critical tables of numerical data, physics, chemistry and technology. 1st electronic edition. Knovel: Norwich, NY, 2003."
535,tert-butyl alcohol,CC(C)(C)O,331.09,0.003020327,1.097,0.040206628,0.780382171,0.4,21.90970297,14.39549803,14.91114222,20.72676081,10.41061683,30.21850495,"WE Wasburn. International critical tables of numerical data, physics, chemistry and technology. 1st electronic edition. Knovel: Norwich, NY, 2003."
536,2-methyl-2-propanol,CC(C)(C)O,331.1,0.003020236,1.1,0.041392685,0.778704959,0.34,21.92964356,14.34734792,14.87130123,20.66443494,10.37287748,30.18644554,"Diego Alonso Saldana, Laurie Starck, Pascal Mougin, Bernard Rousseau, Nicolas Ferrando, and Benoit Creton. Prediction of density and viscosity of biofuel compounds using machine learning methods. Energy & fuels, 26(4):2416-2426, 2012."
537,2-methyl-2-propanol,CC(C)(C)O,335.2,0.002983294,0.97,-0.013228266,0.77072013,0.47,22.00621782,14.12033227,14.7088434,20.39007608,10.22284625,30.30290099,"Diego Alonso Saldana, Laurie Starck, Pascal Mougin, Bernard Rousseau, Nicolas Ferrando, and Benoit Creton. Prediction of density and viscosity of biofuel compounds using machine learning methods. Energy & fuels, 26(4):2416-2426, 2012."
538,tert-butyl alcohol,CC(C)(C)O,335.24,0.002982938,0.9678,-0.014214382,0.774089119,0.48,21.96814851,14.15550191,14.77438194,20.46171838,10.24828323,30.34925743,"WE Wasburn. International critical tables of numerical data, physics, chemistry and technology. 1st electronic edition. Knovel: Norwich, NY, 2003."
539,2-methyl-2-propanol,CC(C)(C)O,337.6,0.002962085,0.91,-0.040958608,0.770846986,0.47,22.0010099,14.06185475,14.70983966,20.35020228,10.18865561,30.37816832,"Diego Alonso Saldana, Laurie Starck, Pascal Mougin, Bernard Rousseau, Nicolas Ferrando, and Benoit Creton. Prediction of density and viscosity of biofuel compounds using machine learning methods. Energy & fuels, 26(4):2416-2426, 2012."
540,2-methyl-2-propanol,CC(C)(C)O,346.6,0.00288517,0.71,-0.148741651,0.754474025,0.6,22.15735644,13.49449644,14.39061518,19.72840993,9.827990825,30.566,"Diego Alonso Saldana, Laurie Starck, Pascal Mougin, Bernard Rousseau, Nicolas Ferrando, and Benoit Creton. Prediction of density and viscosity of biofuel compounds using machine learning methods. Energy & fuels, 26(4):2416-2426, 2012."
541,tert-butyl alcohol,CC(C)(C)O,346.62,0.002885004,0.7057,-0.151379883,0.753763755,0.71,22.16870297,13.5126778,14.36035416,19.71888896,9.827795871,30.5270396,"WE Wasburn. International critical tables of numerical data, physics, chemistry and technology. 1st electronic edition. Knovel: Norwich, NY, 2003."
542,2-methyl-2-propanol,CC(C)(C)O,394.8,0.002532928,0.24,-0.619788758,0.684708441,1.6,22.88691089,11.02433221,12.98154714,17.03177223,8.290175675,31.5979901,"Diego Alonso Saldana, Laurie Starck, Pascal Mougin, Bernard Rousseau, Nicolas Ferrando, and Benoit Creton. Prediction of density and viscosity of biofuel compounds using machine learning methods. Energy & fuels, 26(4):2416-2426, 2012."
543,P-tert-butylphenol,CC(C)(C)c1ccc(O)cc1,383.15,0.002609944,2.4,0.380211242,0.937349626,0.25,22.00375248,12.3500898,16.28067779,20.43556639,16.75748696,30.17719802,"Sunghwan Kim, Paul A Thiessen, Tiejun Cheng, Jian Zhang, Asta Gindulyte, and Evan E Bolton. Pug-view: programmatic access to chemical annotations integrated in pubchem. Journal of cheminformatics, 11(1):1-11, 2019."
544,hydroxypivalyl hydroxypivalate,CC(C)(CO)COC(=O)C(C)(C)CO,358.1,0.002792516,19.59,1.292034436,1.010929147,0.04,21.4720495,14.97266762,16.29249217,22.1280654,24.35866582,26.78726733,"Diego Alonso Saldana, Laurie Starck, Pascal Mougin, Bernard Rousseau, Nicolas Ferrando, and Benoit Creton. Prediction of density and viscosity of biofuel compounds using machine learning methods. Energy & fuels, 26(4):2416-2426, 2012."
545,hydroxypivalyl hydroxypivalate,CC(C)(CO)COC(=O)C(C)(C)CO,368.1,0.002716653,12.71,1.104145551,1.00104304,0.08,21.54265347,14.60788835,16.13447269,21.76543368,23.83566562,28.0579604,"Diego Alonso Saldana, Laurie Starck, Pascal Mougin, Bernard Rousseau, Nicolas Ferrando, and Benoit Creton. Prediction of density and viscosity of biofuel compounds using machine learning methods. Energy & fuels, 26(4):2416-2426, 2012."
546,"2,2-Dichloropropane",CC(C)(Cl)Cl,288.15,0.003470415,0.769,-0.11407366,1.184663837,0.09,24.33257426,8.008528461,17.28552528,19.05074008,8.845590858,33.65883168,"A Dean John et al. Lange's handbook of chemistry. In Universitas Of Tennese Knoxville, Fifthenth Edition, Mc. Graw Hill Inc, New York. Conference, 1999."
547,"2,2-Dichloropropane",CC(C)(Cl)Cl,303.15,0.003298697,0.619,-0.208309351,1.160699329,0.16,24.50328713,7.804239607,16.84484208,18.56496428,8.621062729,33.93262376,"A Dean John et al. Lange's handbook of chemistry. In Universitas Of Tennese Knoxville, Fifthenth Edition, Mc. Graw Hill Inc, New York. Conference, 1999."
548,Trifluoro-2-methyl propanol,CC(C)(O)C(F)(F)F,298.15,0.003354016,3.32,0.521138084,1.231684636,0.14,22.58811881,15.10476485,14.75734389,21.11744228,11.67712472,31.19547525,"Dabir S Viswanath, Tushar K Ghosh, Dasika HL Prasad, Nidamarty VK Dutt, Kalipatnapu Y Rani, Dabir S Viswanath, Tushar K Ghosh, Dasika HL Prasad, Nidamarty VK Dutt, and Kalipatnapu Y Rani. Correlations and estimation of pure liquid viscosity.Viscosity of Liquids: Theory, Estimation, Experiment, and Data, pages 135-405, 2007."
549,phorone,CC(C)=CC(=O)C=C(C)C,298.15,0.003354016,1.4,0.146128036,0.885639544,0.04,22.12136634,7.908790669,18.04548349,19.70264258,15.07150035,30.45718812,"WE Wasburn. International critical tables of numerical data, physics, chemistry and technology. 1st electronic edition. Knovel: Norwich, NY, 2003."
550,Squalene,CC(C)=CCCC(C)=CCCC(C)=CCCC=C(C)CCC=C(C)CCC=C(C)C,298.15,0.003354016,12.0,1.079181246,0.849114,0.05,21.57748515,1.912254466,16.51546254,16.62593941,32.54986911,28.1960099,"Sunghwan Kim, Paul A Thiessen, Tiejun Cheng, Jian Zhang, Asta Gindulyte, and Evan E Bolton. Pug-view: programmatic access to chemical annotations integrated in pubchem. Journal of cheminformatics, 11(1):1-11, 2019."