Index,Name,CANON_SMILES,Temperature (K),Inverse temperature (1/K),Viscosity (cP),log(Viscosity),MD_density,MD_FV,MD_Rg,MD_SP_E,MD_SP_V,MD_SP,MD_HV,MD_RMSD,Reference
1944,1-iodopropane,CCCI,322.15,0.003104144,0.669884609,-0.174,1.777387207,0.17,24.35493069,5.813624735,17.26666664,18.21919399,8.22791284,33.77311881,"Marina Cocchi, Pier Giuseppe De Benedetti, Renato Seeber, Lorenzo Tassi, and Alessandro Ulrici. Development of quantitative structure- property relationships using calculated descriptors for the prediction of the physicochemical properties of a series of organic solvents. Journal of chemical information and computer sciences, 39(6):1190-1203, 1999."
1945,ethyl-n-propylamine,CCCNCC,298.15,0.003354016,0.903,-0.04431225,0.728452648,0.44,21.87923762,7.042648959,15.14641575,16.70443025,8.572752962,30.1090198,"WE Wasburn. International critical tables of numerical data, physics, chemistry and technology. 1st electronic edition. Knovel: Norwich, NY, 2003."
1946,n-propylaniline,CCCNc1ccccc1,298.15,0.003354016,2.53,0.403120521,0.932638745,0.07,21.8850495,6.823664174,18.07048913,19.31620542,13.52090898,30.15672277,"WE Wasburn. International critical tables of numerical data, physics, chemistry and technology. 1st electronic edition. Knovel: Norwich, NY, 2003."
1947,1-propanol,CCCO,233.1,0.004290004,13.92,1.143639235,0.855621039,0.03,21.344,20.69565231,16.13911072,26.24486228,12.0259332,28.94135644,"Diego Alonso Saldana, Laurie Starck, Pascal Mougin, Bernard Rousseau, Nicolas Ferrando, and Benoit Creton. Prediction of density and viscosity of biofuel compounds using machine learning methods. Energy & fuels, 26(4):2416-2426, 2012."
1948,1-propanol,CCCO,243.1,0.004113534,9.84,0.992995098,0.850105002,0.03,21.39045545,20.43718199,16.03983148,25.98023467,11.88734269,29.45638614,"Diego Alonso Saldana, Laurie Starck, Pascal Mougin, Bernard Rousseau, Nicolas Ferrando, and Benoit Creton. Prediction of density and viscosity of biofuel compounds using machine learning methods. Energy & fuels, 26(4):2416-2426, 2012."
1949,1-propanol,CCCO,253.1,0.003951008,6.98,0.843855423,0.838846761,0.06,21.48430693,20.12560191,15.779269,25.57418951,11.7018332,29.59119802,"Diego Alonso Saldana, Laurie Starck, Pascal Mougin, Bernard Rousseau, Nicolas Ferrando, and Benoit Creton. Prediction of density and viscosity of biofuel compounds using machine learning methods. Energy & fuels, 26(4):2416-2426, 2012."
1950,1-propanol,CCCO,263.1,0.003800836,5.06,0.704150517,0.833472737,0.03,21.53371287,19.86436642,15.67609926,25.30504349,11.55793014,29.8119703,"Diego Alonso Saldana, Laurie Starck, Pascal Mougin, Bernard Rousseau, Nicolas Ferrando, and Benoit Creton. Prediction of density and viscosity of biofuel compounds using machine learning methods. Energy & fuels, 26(4):2416-2426, 2012."
1951,1-propanol,CCCO,273.1,0.003661662,3.81,0.580924976,0.822642611,0.07,21.62346535,19.53155041,15.44621003,24.90144713,11.36928206,29.90515842,"Diego Alonso Saldana, Laurie Starck, Pascal Mougin, Bernard Rousseau, Nicolas Ferrando, and Benoit Creton. Prediction of density and viscosity of biofuel compounds using machine learning methods. Energy & fuels, 26(4):2416-2426, 2012."
1952,n-propyl alcohol,CCCO,280.5,0.003565062,3.145,0.49762065,0.809902905,0.12,21.74234653,19.18905897,15.19213829,24.47527082,11.18111255,30.10241584,"WE Wasburn. International critical tables of numerical data, physics, chemistry and technology. 1st electronic edition. Knovel: Norwich, NY, 2003."
1953,1-propanol,CCCO,283.1,0.003532321,2.87,0.457881897,0.81413301,0.1,21.69744554,19.19576719,15.28762111,24.53987546,11.18694643,30.11094059,"Diego Alonso Saldana, Laurie Starck, Pascal Mougin, Bernard Rousseau, Nicolas Ferrando, and Benoit Creton. Prediction of density and viscosity of biofuel compounds using machine learning methods. Energy & fuels, 26(4):2416-2426, 2012."
1954,n-propyl alcohol,CCCO,283.15,0.003531697,2.877,0.458939862,0.808463936,0.18,21.75449505,19.09360004,15.17893364,24.39214719,11.13313775,30.0780099,"WE Wasburn. International critical tables of numerical data, physics, chemistry and technology. 1st electronic edition. Knovel: Norwich, NY, 2003."
1955,n-propyl alcohol,CCCO,286.55,0.003489792,2.868,0.457579147,0.806535273,0.14,21.77422772,19.02423136,15.13970706,24.31352172,11.09696387,30.1190396,"WE Wasburn. International critical tables of numerical data, physics, chemistry and technology. 1st electronic edition. Knovel: Norwich, NY, 2003."
1956,1-propanol,CCCO,288.1,0.003471017,2.32,0.365487985,0.808539015,0.13,21.75480198,19.04311846,15.16079548,24.34133217,11.09799818,30.14186139,"Diego Alonso Saldana, Laurie Starck, Pascal Mougin, Bernard Rousseau, Nicolas Ferrando, and Benoit Creton. Prediction of density and viscosity of biofuel compounds using machine learning methods. Energy & fuels, 26(4):2416-2426, 2012."
1957,1-propanol,CCCO,293.1,0.003411805,2.22,0.346352975,0.792661934,0.22,21.88762376,18.6993269,14.83233975,23.86802251,10.90529516,30.265,"Diego Alonso Saldana, Laurie Starck, Pascal Mougin, Bernard Rousseau, Nicolas Ferrando, and Benoit Creton. Prediction of density and viscosity of biofuel compounds using machine learning methods. Energy & fuels, 26(4):2416-2426, 2012."
1958,n-propyl alcohol,CCCO,296.01,0.003378264,2.101,0.322426052,0.789702704,0.23,21.92570297,18.57939958,14.790245,23.74786195,10.84569264,30.29209901,"WE Wasburn. International critical tables of numerical data, physics, chemistry and technology. 1st electronic edition. Knovel: Norwich, NY, 2003."
1959,1-propanol,CCCO,298.1,0.003354579,1.94,0.28780173,0.791625217,0.17,21.90272277,18.56375472,14.82090533,23.7547362,10.83088092,30.31842574,"Diego Alonso Saldana, Laurie Starck, Pascal Mougin, Bernard Rousseau, Nicolas Ferrando, and Benoit Creton. Prediction of density and viscosity of biofuel compounds using machine learning methods. Energy & fuels, 26(4):2416-2426, 2012."
1960,1-propanol,CCCO,303.1,0.003299241,1.71,0.23299611,0.785548739,0.24,21.95516832,18.33342195,14.7306086,23.51853486,10.71583476,30.40772277,"Diego Alonso Saldana, Laurie Starck, Pascal Mougin, Bernard Rousseau, Nicolas Ferrando, and Benoit Creton. Prediction of density and viscosity of biofuel compounds using machine learning methods. Energy & fuels, 26(4):2416-2426, 2012."
1961,n-propyl alcohol,CCCO,304.17,0.003287635,1.724,0.236537262,0.783488187,0.16,21.97679208,18.30474297,14.66471659,23.45495473,10.68981426,30.35222772,"WE Wasburn. International critical tables of numerical data, physics, chemistry and technology. 1st electronic edition. Knovel: Norwich, NY, 2003."
1962,1-propanol,CCCO,308.1,0.003245699,1.5,0.176091259,0.787189662,0.22,21.94559406,18.25622763,14.76969903,23.48307943,10.67431185,30.27564356,"Diego Alonso Saldana, Laurie Starck, Pascal Mougin, Bernard Rousseau, Nicolas Ferrando, and Benoit Creton. Prediction of density and viscosity of biofuel compounds using machine learning methods. Energy & fuels, 26(4):2416-2426, 2012."
1963,n-propyl alcohol,CCCO,311.94,0.003205745,1.44,0.158362492,0.776608339,0.22,22.04976238,18.00660515,14.53636474,23.14221826,10.52510784,30.49051485,"WE Wasburn. International critical tables of numerical data, physics, chemistry and technology. 1st electronic edition. Knovel: Norwich, NY, 2003."
1964,1-propanol,CCCO,313.1,0.003193868,1.38,0.139879086,0.776978147,0.3,22.04222772,17.99304626,14.56851,23.15200132,10.53109682,30.47734653,"Diego Alonso Saldana, Laurie Starck, Pascal Mougin, Bernard Rousseau, Nicolas Ferrando, and Benoit Creton. Prediction of density and viscosity of biofuel compounds using machine learning methods. Energy & fuels, 26(4):2416-2426, 2012."
1965,n-propyl alcohol,CCCO,313.15,0.003193358,1.389,0.142702246,0.783105884,0.18,21.99028713,18.08940175,14.69656397,23.30737066,10.58601601,30.37969307,"WE Wasburn. International critical tables of numerical data, physics, chemistry and technology. 1st electronic edition. Knovel: Norwich, NY, 2003."
1966,1-propanol,CCCO,318.1,0.003143666,1.23,0.089905111,0.778158506,0.21,22.02389109,17.89178922,14.61408312,23.10203206,10.48331111,30.43565347,"Diego Alonso Saldana, Laurie Starck, Pascal Mougin, Bernard Rousseau, Nicolas Ferrando, and Benoit Creton. Prediction of density and viscosity of biofuel compounds using machine learning methods. Energy & fuels, 26(4):2416-2426, 2012."
1967,n-propyl alcohol,CCCO,319.62,0.003128715,1.218,0.085647288,0.773182774,0.23,22.08377228,17.77767987,14.50812786,22.94666273,10.41680586,30.66090099,"WE Wasburn. International critical tables of numerical data, physics, chemistry and technology. 1st electronic edition. Knovel: Norwich, NY, 2003."
1968,n-propyl alcohol,CCCO,327.48,0.003053622,1.03,0.012837225,0.764195735,0.33,22.15372277,17.41819832,14.33625971,22.5596176,10.2164492,30.65809901,"WE Wasburn. International critical tables of numerical data, physics, chemistry and technology. 1st electronic edition. Knovel: Norwich, NY, 2003."
1969,1-propanol,CCCO,328.1,0.003047851,0.99,-0.004364805,0.761351544,0.27,22.18730693,17.38859938,14.26768442,22.49339476,10.19712346,30.62850495,"Diego Alonso Saldana, Laurie Starck, Pascal Mougin, Bernard Rousseau, Nicolas Ferrando, and Benoit Creton. Prediction of density and viscosity of biofuel compounds using machine learning methods. Energy & fuels, 26(4):2416-2426, 2012."
1970,1-propanol,CCCO,333.1,0.003002101,0.88,-0.055517328,0.752290795,0.47,22.28367327,17.11985153,14.09920954,22.17884669,10.05378708,30.81164356,"Diego Alonso Saldana, Laurie Starck, Pascal Mougin, Bernard Rousseau, Nicolas Ferrando, and Benoit Creton. Prediction of density and viscosity of biofuel compounds using machine learning methods. Energy & fuels, 26(4):2416-2426, 2012."
1971,n-propyl alcohol,CCCO,334.89,0.002986055,0.888,-0.051587034,0.754888411,0.43,22.26213861,17.0931379,14.16664201,22.20110602,10.04379462,30.75287129,"WE Wasburn. International critical tables of numerical data, physics, chemistry and technology. 1st electronic edition. Knovel: Norwich, NY, 2003."
1972,n-propyl alcohol,CCCO,342.19,0.002922353,0.771,-0.112945622,0.751385005,0.44,22.28769307,16.84935607,14.10590407,21.97492297,9.911015512,30.80441584,"WE Wasburn. International critical tables of numerical data, physics, chemistry and technology. 1st electronic edition. Knovel: Norwich, NY, 2003."
1973,n-propyl alcohol,CCCO,349.9,0.002857959,0.666,-0.176525771,0.73897164,0.58,22.41268317,16.42978459,13.88878351,21.51408868,9.691927484,30.99332673,"WE Wasburn. International critical tables of numerical data, physics, chemistry and technology. 1st electronic edition. Knovel: Norwich, NY, 2003."
1974,1-propanol,CCCO,353.1,0.002832059,0.63,-0.200659451,0.743417942,0.53,22.37410891,16.43259768,13.961058,21.56292196,9.685091839,30.96663366,"Diego Alonso Saldana, Laurie Starck, Pascal Mougin, Bernard Rousseau, Nicolas Ferrando, and Benoit Creton. Prediction of density and viscosity of biofuel compounds using machine learning methods. Energy & fuels, 26(4):2416-2426, 2012."
1975,n-propyl alcohol,CCCO,357.97,0.00279353,0.576,-0.239577517,0.731216112,0.57,22.49116832,16.10736138,13.7231084,21.16105446,9.507424885,31.14285149,"WE Wasburn. International critical tables of numerical data, physics, chemistry and technology. 1st electronic edition. Knovel: Norwich, NY, 2003."
1976,1-propanol,CCCO,363.1,0.002754062,0.54,-0.26760624,0.715026613,1.04,22.66019802,15.67982658,13.42220122,20.64061379,9.279758744,31.29894059,"Diego Alonso Saldana, Laurie Starck, Pascal Mougin, Bernard Rousseau, Nicolas Ferrando, and Benoit Creton. Prediction of density and viscosity of biofuel compounds using machine learning methods. Energy & fuels, 26(4):2416-2426, 2012."
1977,n-propyl alcohol,CCCO,366.25,0.002730375,0.499,-0.301899454,0.720087196,1.02,22.59228713,15.68262026,13.54363502,20.72183149,9.292883492,31.31819802,"WE Wasburn. International critical tables of numerical data, physics, chemistry and technology. 1st electronic edition. Knovel: Norwich, NY, 2003."
1978,n-propyl alcohol,CCCO,368.74,0.002711938,0.477,-0.321481621,0.712742102,0.81,22.68332673,15.46227368,13.40688911,20.46591505,9.17372354,31.41753465,"WE Wasburn. International critical tables of numerical data, physics, chemistry and technology. 1st electronic edition. Knovel: Norwich, NY, 2003."
1979,methyl propyl ether,CCCOC,273.45,0.003656976,0.3064,-0.513711239,0.742282946,0.27,22.28075248,5.349111981,15.56992125,16.46334709,7.012272488,30.73259406,"WE Wasburn. International critical tables of numerical data, physics, chemistry and technology. 1st electronic edition. Knovel: Norwich, NY, 2003."
1980,methyl propyl ether,CCCOC,278.29,0.003593374,0.2914,-0.535510453,0.73932532,0.41,22.3199505,5.299972663,15.48892899,16.37076719,6.974918988,30.80830693,"WE Wasburn. International critical tables of numerical data, physics, chemistry and technology. 1st electronic edition. Knovel: Norwich, NY, 2003."
1981,methyl propyl ether,CCCOC,283.62,0.003525844,0.2759,-0.5592483,0.722756605,0.39,22.4809505,5.149483306,15.07807221,15.93336327,6.786387384,31.018,"WE Wasburn. International critical tables of numerical data, physics, chemistry and technology. 1st electronic edition. Knovel: Norwich, NY, 2003."
1982,methyl propyl ether,CCCOC,288.32,0.003468368,0.263,-0.580044252,0.722569397,0.38,22.48470297,5.11525941,15.05987931,15.90511027,6.775297037,31.07151485,"WE Wasburn. International critical tables of numerical data, physics, chemistry and technology. 1st electronic edition. Knovel: Norwich, NY, 2003."
1983,Methyl propyl ether,CCCOC,293.15,0.003411223,0.25,-0.602059991,0.719379175,0.51,22.52121782,5.064439482,14.96715205,15.80093201,6.73105392,31.13314851,"Dabir S Viswanath, Tushar K Ghosh, Dasika HL Prasad, Nidamarty VK Dutt, Kalipatnapu Y Rani, Dabir S Viswanath, Tushar K Ghosh, Dasika HL Prasad, Nidamarty VK Dutt, and Kalipatnapu Y Rani. Correlations and estimation of pure liquid viscosity.Viscosity of Liquids: Theory, Estimation, Experiment, and Data, pages 135-405, 2007."
1984,methyl propyl ether,CCCOC,293.25,0.00341006,0.2513,-0.599807511,0.719446992,0.43,22.50949505,5.062190495,14.96301186,15.79636111,6.727122747,31.11938614,"WE Wasburn. International critical tables of numerical data, physics, chemistry and technology. 1st electronic edition. Knovel: Norwich, NY, 2003."
1985,methyl propyl ether,CCCOC,298.88,0.003345824,0.2385,-0.622511617,0.71663726,0.37,22.54666337,5.02262198,14.8813283,15.70630236,6.692256368,31.18331683,"WE Wasburn. International critical tables of numerical data, physics, chemistry and technology. 1st electronic edition. Knovel: Norwich, NY, 2003."
1986,methyl propyl ether,CCCOC,302.63,0.003304365,0.23,-0.638272164,0.697643143,0.74,22.75393069,4.851026598,14.42734131,15.22127595,6.484828688,31.41042574,"WE Wasburn. International critical tables of numerical data, physics, chemistry and technology. 1st electronic edition. Knovel: Norwich, NY, 2003."
1987,methyl propyl ether,CCCOC,308.3,0.003243594,0.2187,-0.660151217,0.701732318,0.63,22.71241584,4.848952699,14.50057885,15.29006446,6.514813064,31.35316832,"WE Wasburn. International critical tables of numerical data, physics, chemistry and technology. 1st electronic edition. Knovel: Norwich, NY, 2003."
1988,propyl propanoate,CCCOC(=O)CC,288.1,0.003471017,0.71,-0.148741651,0.896197346,0.07,22.07861386,5.757390237,17.50753007,18.43003472,11.09488034,30.40112871,"Diego Alonso Saldana, Laurie Starck, Pascal Mougin, Bernard Rousseau, Nicolas Ferrando, and Benoit Creton. Prediction of density and viscosity of biofuel compounds using machine learning methods. Energy & fuels, 26(4):2416-2426, 2012."
1989,propyl propanoate,CCCOC(=O)CC,293.1,0.003411805,0.67,-0.173925197,0.896284454,0.06,22.07829703,5.749830256,17.4809378,18.40242015,11.07230511,30.5169703,"Diego Alonso Saldana, Laurie Starck, Pascal Mougin, Bernard Rousseau, Nicolas Ferrando, and Benoit Creton. Prediction of density and viscosity of biofuel compounds using machine learning methods. Energy & fuels, 26(4):2416-2426, 2012."
1990,propyl propanoate,CCCOC(=O)CC,298.1,0.003354579,0.61,-0.214670165,0.883561614,0.09,22.18169307,5.646963818,17.18718036,18.09119648,10.87641946,30.66055446,"Diego Alonso Saldana, Laurie Starck, Pascal Mougin, Bernard Rousseau, Nicolas Ferrando, and Benoit Creton. Prediction of density and viscosity of biofuel compounds using machine learning methods. Energy & fuels, 26(4):2416-2426, 2012."
1991,propyl propanoate,CCCOC(=O)CC,303.1,0.003299241,0.59,-0.229147988,0.884247534,0.11,22.17286139,5.619326344,17.17745666,18.07339374,10.8581707,30.51608911,"Diego Alonso Saldana, Laurie Starck, Pascal Mougin, Bernard Rousseau, Nicolas Ferrando, and Benoit Creton. Prediction of density and viscosity of biofuel compounds using machine learning methods. Energy & fuels, 26(4):2416-2426, 2012."
1992,"propane-1,2,3-tricarboxylic acid tripropyl ester",CCCOC(=O)CC(CC(=O)OCCC)C(=O)OCCC,298.15,0.003354016,16.6,1.220108088,1.04645446,0.04,21.7270297,6.545616431,18.14782548,19.29241483,26.29627652,27.66052475,"Valentin Goussard, Francois Duprat, Jean-Luc Ploix, G erard Dreyfus, Veronique Nardello-Rataj, and Jean-Marie Aubry. A new machine-learning tool for fast estimation of liquid viscosity. application to cosmetic oils. Journal of Chemical Information and Modeling, 60(4):2012-2023, 2020."
1993,propyl butyrate,CCCOC(=O)CCC,291.15,0.003434656,0.831763771,-0.08,0.871921316,0.09,22.09628713,5.032050568,16.94226363,17.6739398,11.72580774,30.42187129,"Marina Cocchi, Pier Giuseppe De Benedetti, Renato Seeber, Lorenzo Tassi, and Alessandro Ulrici. Development of quantitative structure- property relationships using calculated descriptors for the prediction of the physicochemical properties of a series of organic solvents. Journal of chemical information and computer sciences, 39(6):1190-1203, 1999."
1994,propyl butanoate,CCCOC(=O)CCC,298.1,0.003354579,0.83,-0.080921908,0.879413743,0.07,22.02670297,5.061278853,17.07956283,17.81389922,11.82034336,30.43169307,"Diego Alonso Saldana, Laurie Starck, Pascal Mougin, Bernard Rousseau, Nicolas Ferrando, and Benoit Creton. Prediction of density and viscosity of biofuel compounds using machine learning methods. Energy & fuels, 26(4):2416-2426, 2012."
1995,propyl butyrate,CCCOC(=O)CCC,298.15,0.003354016,0.81,-0.091514981,0.877844423,0.11,22.04422772,5.045795587,17.0365771,17.76824234,11.78293637,30.26876238,"Valentin Goussard, Francois Duprat, Jean-Luc Ploix, G erard Dreyfus, Veronique Nardello-Rataj, and Jean-Marie Aubry. A new machine-learning tool for fast estimation of liquid viscosity. application to cosmetic oils. Journal of Chemical Information and Modeling, 60(4):2012-2023, 2020."
1996,propyl butanoate,CCCOC(=O)CCC,303.1,0.003299241,0.8,-0.096910013,0.878629186,0.12,22.04563366,5.036905111,17.04685451,17.77561031,11.79205317,30.36239604,"Diego Alonso Saldana, Laurie Starck, Pascal Mougin, Bernard Rousseau, Nicolas Ferrando, and Benoit Creton. Prediction of density and viscosity of biofuel compounds using machine learning methods. Energy & fuels, 26(4):2416-2426, 2012."
1997,propyl butanoate,CCCOC(=O)CCC,313.1,0.003193868,0.66,-0.180456065,0.866572117,0.11,22.14181188,4.91672736,16.73850533,17.44582927,11.55056233,30.50571287,"Diego Alonso Saldana, Laurie Starck, Pascal Mougin, Bernard Rousseau, Nicolas Ferrando, and Benoit Creton. Prediction of density and viscosity of biofuel compounds using machine learning methods. Energy & fuels, 26(4):2416-2426, 2012."
1998,propyl butanoate,CCCOC(=O)CCC,323.1,0.003095017,0.57,-0.244125144,0.847938459,0.22,22.30576238,4.77577353,16.28685658,16.97280698,11.21318081,30.81442574,"Diego Alonso Saldana, Laurie Starck, Pascal Mougin, Bernard Rousseau, Nicolas Ferrando, and Benoit Creton. Prediction of density and viscosity of biofuel compounds using machine learning methods. Energy & fuels, 26(4):2416-2426, 2012."