Index,Name,CANON_SMILES,Temperature (K),Inverse temperature (1/K),Viscosity (cP),log(Viscosity),MD_density,MD_FV,MD_Rg,MD_SP_E,MD_SP_V,MD_SP,MD_HV,MD_RMSD,Reference
385,1-vinyl-2-pyrrolidone,C=CN1CCCC1=O,298.15,0.003354016,2.07,0.315970346,1.044886704,0.01,21.82540594,11.25585296,20.74884594,23.60535027,14.75835875,30.01091089,"Sunghwan Kim, Paul A Thiessen, Tiejun Cheng, Jian Zhang, Asta Gindulyte, and Evan E Bolton. Pug-view: programmatic access to chemical annotations integrated in pubchem. Journal of cheminformatics, 11(1):1-11, 2019."
386,vinyl acetate,C=COC(C)=O,273.3,0.003658983,0.55,-0.259637311,0.999482357,0.04,22.84777228,8.178695916,18.94840425,20.63829963,9.311800459,31.68171287,"Diego Alonso Saldana, Laurie Starck, Pascal Mougin, Bernard Rousseau, Nicolas Ferrando, and Benoit Creton. Prediction of density and viscosity of biofuel compounds using machine learning methods. Energy & fuels, 26(4):2416-2426, 2012."
387,vinyl acetate,C=COC(C)=O,278.0,0.003597122,0.51,-0.292429824,0.984938348,0.03,22.96027723,8.035540697,18.63963512,20.29805045,9.159636462,31.83131683,"Diego Alonso Saldana, Laurie Starck, Pascal Mougin, Bernard Rousseau, Nicolas Ferrando, and Benoit Creton. Prediction of density and viscosity of biofuel compounds using machine learning methods. Energy & fuels, 26(4):2416-2426, 2012."
388,vinyl acetate,C=COC(C)=O,281.6,0.003551136,0.49,-0.30980392,0.983804863,0.03,22.96241584,7.992862096,18.60476346,20.24914513,9.135235709,31.76763366,"Diego Alonso Saldana, Laurie Starck, Pascal Mougin, Bernard Rousseau, Nicolas Ferrando, and Benoit Creton. Prediction of density and viscosity of biofuel compounds using machine learning methods. Energy & fuels, 26(4):2416-2426, 2012."
389,vinyl acetate,C=COC(C)=O,284.8,0.003511236,0.47,-0.327902142,0.973873307,0.06,23.0439901,7.896186425,18.39224381,20.01574261,9.030492701,31.96465347,"Diego Alonso Saldana, Laurie Starck, Pascal Mougin, Bernard Rousseau, Nicolas Ferrando, and Benoit Creton. Prediction of density and viscosity of biofuel compounds using machine learning methods. Energy & fuels, 26(4):2416-2426, 2012."
390,vinyl acetate,C=COC(C)=O,286.5,0.003490401,0.46,-0.337242168,0.977260894,0.05,23.01983168,7.916732977,18.45104684,20.07786372,9.056973706,31.83827723,"Diego Alonso Saldana, Laurie Starck, Pascal Mougin, Bernard Rousseau, Nicolas Ferrando, and Benoit Creton. Prediction of density and viscosity of biofuel compounds using machine learning methods. Energy & fuels, 26(4):2416-2426, 2012."
391,vinyl acetate,C=COC(C)=O,290.5,0.003442341,0.44,-0.356547324,0.967241036,0.1,23.10523762,7.794953751,18.23432732,19.8307326,8.943041067,32.00592079,"Diego Alonso Saldana, Laurie Starck, Pascal Mougin, Bernard Rousseau, Nicolas Ferrando, and Benoit Creton. Prediction of density and viscosity of biofuel compounds using machine learning methods. Energy & fuels, 26(4):2416-2426, 2012."
392,vinyl acetate,C=COC(C)=O,292.5,0.003418803,0.43,-0.366531544,0.967957359,0.08,23.08976238,7.793737286,18.23694182,19.83262064,8.942410374,31.99731683,"Diego Alonso Saldana, Laurie Starck, Pascal Mougin, Bernard Rousseau, Nicolas Ferrando, and Benoit Creton. Prediction of density and viscosity of biofuel compounds using machine learning methods. Energy & fuels, 26(4):2416-2426, 2012."
393,vinyl acetate,C=COC(C)=O,294.3,0.003397893,0.42,-0.37675071,0.965922915,0.09,23.11220792,7.772441651,18.19242102,19.78334582,8.922010581,31.98337624,"Diego Alonso Saldana, Laurie Starck, Pascal Mougin, Bernard Rousseau, Nicolas Ferrando, and Benoit Creton. Prediction of density and viscosity of biofuel compounds using machine learning methods. Energy & fuels, 26(4):2416-2426, 2012."
394,vinyl acetate,C=COC(C)=O,298.15,0.003354016,0.4,-0.397940009,0.963846228,0.06,23.12683168,7.730473181,18.13325921,19.71245075,8.88785137,32.04839604,"Valentin Goussard, Francois Duprat, Jean-Luc Ploix, G erard Dreyfus, Veronique Nardello-Rataj, and Jean-Marie Aubry. A new machine-learning tool for fast estimation of liquid viscosity. application to cosmetic oils. Journal of Chemical Information and Modeling, 60(4):2012-2023, 2020."
395,vinyl acetate,C=COC(C)=O,301.5,0.00331675,0.39,-0.408935393,0.960339115,0.09,23.15454455,7.674244607,18.05165263,19.61534871,8.842981817,32.04286139,"Diego Alonso Saldana, Laurie Starck, Pascal Mougin, Bernard Rousseau, Nicolas Ferrando, and Benoit Creton. Prediction of density and viscosity of biofuel compounds using machine learning methods. Energy & fuels, 26(4):2416-2426, 2012."
396,vinyl acetate,C=COC(C)=O,307.1,0.003256268,0.37,-0.431798276,0.95846966,0.14,23.17157426,7.633559432,17.99422467,19.54657246,8.812367778,32.13120792,"Diego Alonso Saldana, Laurie Starck, Pascal Mougin, Bernard Rousseau, Nicolas Ferrando, and Benoit Creton. Prediction of density and viscosity of biofuel compounds using machine learning methods. Energy & fuels, 26(4):2416-2426, 2012."
397,vinyl acetate,C=COC(C)=O,313.9,0.003185728,0.34,-0.468521083,0.944392963,0.14,23.28453465,7.492727533,17.68483645,19.20678477,8.66125234,32.24008911,"Diego Alonso Saldana, Laurie Starck, Pascal Mougin, Bernard Rousseau, Nicolas Ferrando, and Benoit Creton. Prediction of density and viscosity of biofuel compounds using machine learning methods. Energy & fuels, 26(4):2416-2426, 2012."
398,vinyl acetate,C=COC(C)=O,333.1,0.003002101,0.29,-0.537602002,0.921119272,0.27,23.47545545,7.170190481,17.15651145,18.59469423,8.385640046,32.53393069,"Diego Alonso Saldana, Laurie Starck, Pascal Mougin, Bernard Rousseau, Nicolas Ferrando, and Benoit Creton. Prediction of density and viscosity of biofuel compounds using machine learning methods. Energy & fuels, 26(4):2416-2426, 2012."
399,4-vinyltoluene,C=Cc1ccc(C)cc1,239.02,0.00418375,2.0986,0.321929669,0.960394496,0.01,22.08741584,6.745805789,19.129122,20.28383594,12.57532105,30.48814851,"Sunghwan Kim, Paul A Thiessen, Tiejun Cheng, Jian Zhang, Asta Gindulyte, and Evan E Bolton. Pug-view: programmatic access to chemical annotations integrated in pubchem. Journal of cheminformatics, 11(1):1-11, 2019."
400,2-vinylpyridine,C=Cc1ccccn1,293.15,0.003411223,1.17,0.068185862,0.984114632,0.02,22.78828713,9.820837069,19.13045436,21.50418864,12.39048358,31.4820198,"Sunghwan Kim, Paul A Thiessen, Tiejun Cheng, Jian Zhang, Asta Gindulyte, and Evan E Bolton. Pug-view: programmatic access to chemical annotations integrated in pubchem. Journal of cheminformatics, 11(1):1-11, 2019."
401,Formaldehyde,C=O,298.15,0.003354016,0.1421,-0.847405922,0.702475362,0.64,26.08373267,16.02300873,14.60924046,21.68340035,5.395688721,36.38851485,"Sunghwan Kim, Paul A Thiessen, Tiejun Cheng, Jian Zhang, Asta Gindulyte, and Evan E Bolton. Pug-view: programmatic access to chemical annotations integrated in pubchem. Journal of cheminformatics, 11(1):1-11, 2019."
402,Methyl bromide,CBr,273.15,0.003660992,0.397,-0.401209493,1.778878133,0.15,26.0689604,9.830471229,17.61279353,20.17053535,5.732703648,36.2990396,"Sunghwan Kim, Paul A Thiessen, Tiejun Cheng, Jian Zhang, Asta Gindulyte, and Evan E Bolton. Pug-view: programmatic access to chemical annotations integrated in pubchem. Journal of cheminformatics, 11(1):1-11, 2019."
403,Acetonitrile,CC#N,283.15,0.003531697,0.397,-0.401209493,0.735128858,0.43,24.92086139,17.47020408,13.31693749,21.96704888,7.003277223,34.66731683,"A Dean John et al. Lange's handbook of chemistry. In Universitas Of Tennese Knoxville, Fifthenth Edition, Mc. Graw Hill Inc, New York. Conference, 1999."
404,Acetonitrile,CC#N,303.15,0.003298697,0.329,-0.482804102,0.700472069,0.82,25.32056436,16.72078916,12.61021585,20.94290565,6.746117175,35.12256436,"A Dean John et al. Lange's handbook of chemistry. In Universitas Of Tennese Knoxville, Fifthenth Edition, Mc. Graw Hill Inc, New York. Conference, 1999."
405,methyl-tert-butyl ketone,CC(=O)C(C)(C)C,298.15,0.003354016,0.71285303,-0.147,0.839284142,0.1,21.86611881,7.41783621,16.69487052,18.26872418,10.11199137,30.07248515,"Gregory W Kau man and Peter C Jurs. Prediction of surface tension, viscosity, and thermal conductivity for common organic solvents using quantitative structure- property relationships. Journal of chemical information and computer sciences, 41(2):408-418, 2001."
406,methyl-i-propyl ketone,CC(=O)C(C)C,298.15,0.003354016,0.42854852,-0.368,0.815711765,0.15,22.20907921,8.533114108,16.47336617,18.55233691,9.278957747,30.65619802,"Gregory W Kau man and Peter C Jurs. Prediction of surface tension, viscosity, and thermal conductivity for common organic solvents using quantitative structure- property relationships. Journal of chemical information and computer sciences, 41(2):408-418, 2001."
407,diacetone alcohol,CC(=O)CC(C)(C)O,258.1,0.003874467,14.81,1.170555059,1.008039863,0.02,21.22927723,15.40027321,18.24131501,23.87319364,16.20965678,26.84212871,"Diego Alonso Saldana, Laurie Starck, Pascal Mougin, Bernard Rousseau, Nicolas Ferrando, and Benoit Creton. Prediction of density and viscosity of biofuel compounds using machine learning methods. Energy & fuels, 26(4):2416-2426, 2012."
408,diacetone alcohol,CC(=O)CC(C)(C)O,270.5,0.003696858,7.76,0.889861721,1.003979351,0.01,21.26055446,15.23228163,18.10372869,23.65969131,16.01717721,27.71333663,"Diego Alonso Saldana, Laurie Starck, Pascal Mougin, Bernard Rousseau, Nicolas Ferrando, and Benoit Creton. Prediction of density and viscosity of biofuel compounds using machine learning methods. Energy & fuels, 26(4):2416-2426, 2012."
409,diacetone alcohol,CC(=O)CC(C)(C)O,271.4,0.003684598,7.46,0.872738828,1.001860387,0.01,21.27058416,15.1475522,18.0804003,23.58741452,15.95706483,27.8489604,"Diego Alonso Saldana, Laurie Starck, Pascal Mougin, Bernard Rousseau, Nicolas Ferrando, and Benoit Creton. Prediction of density and viscosity of biofuel compounds using machine learning methods. Energy & fuels, 26(4):2416-2426, 2012."
410,diacetone alcohol,CC(=O)CC(C)(C)O,293.1,0.003411805,3.38,0.5289167,0.975544217,0.04,21.46452475,14.38761144,17.51276867,22.66536897,15.20247008,29.39758416,"Diego Alonso Saldana, Laurie Starck, Pascal Mougin, Bernard Rousseau, Nicolas Ferrando, and Benoit Creton. Prediction of density and viscosity of biofuel compounds using machine learning methods. Energy & fuels, 26(4):2416-2426, 2012."
411,diacetone alcohol,CC(=O)CC(C)(C)O,303.1,0.003299241,2.51,0.399673722,0.969571117,0.02,21.50844554,14.05735144,17.39946614,22.36898358,14.93019162,29.57563366,"Diego Alonso Saldana, Laurie Starck, Pascal Mougin, Bernard Rousseau, Nicolas Ferrando, and Benoit Creton. Prediction of density and viscosity of biofuel compounds using machine learning methods. Energy & fuels, 26(4):2416-2426, 2012."
412,diacetone alcohol,CC(=O)CC(C)(C)O,323.1,0.003095017,1.57,0.195899652,0.945521758,0.08,21.6919901,13.42144986,16.87788365,21.56426033,14.29630178,29.81243564,"Diego Alonso Saldana, Laurie Starck, Pascal Mougin, Bernard Rousseau, Nicolas Ferrando, and Benoit Creton. Prediction of density and viscosity of biofuel compounds using machine learning methods. Energy & fuels, 26(4):2416-2426, 2012."
413,diacetone alcohol,CC(=O)CC(C)(C)O,343.1,0.002914602,1.07,0.029383778,0.931378828,0.19,21.79550495,12.92972794,16.57302242,21.02046409,13.85311024,30.06305941,"Diego Alonso Saldana, Laurie Starck, Pascal Mougin, Bernard Rousseau, Nicolas Ferrando, and Benoit Creton. Prediction of density and viscosity of biofuel compounds using machine learning methods. Energy & fuels, 26(4):2416-2426, 2012."
414,4-Methyl-2-pentanone,CC(=O)CC(C)C,303.15,0.003298697,0.522,-0.282329497,0.810308352,0.16,22.12032673,7.576068349,16.09065039,17.78512086,9.947216024,30.39764356,"A Dean John et al. Lange's handbook of chemistry. In Universitas Of Tennese Knoxville, Fifthenth Edition, Mc. Graw Hill Inc, New York. Conference, 1999."
415,5-methyl-2-hexanone,CC(=O)CCC(C)C,293.15,0.003411223,0.77,-0.113509275,0.829566388,0.11,21.83225743,7.241965982,16.54282282,18.05867087,11.31129169,30.01388119,"Sunghwan Kim, Paul A Thiessen, Tiejun Cheng, Jian Zhang, Asta Gindulyte, and Evan E Bolton. Pug-view: programmatic access to chemical annotations integrated in pubchem. Journal of cheminformatics, 11(1):1-11, 2019."
416,5-Methyl-2-hexanone,CC(=O)CCC(C)C,298.15,0.003354016,0.75,-0.124938737,0.827313192,0.08,21.84244554,7.208165566,16.4656039,17.97437603,11.25026088,30.13660396,"Valentin Goussard, Francois Duprat, Jean-Luc Ploix, G erard Dreyfus, Veronique Nardello-Rataj, and Jean-Marie Aubry. A new machine-learning tool for fast estimation of liquid viscosity. application to cosmetic oils. Journal of Chemical Information and Modeling, 60(4):2012-2023, 2020."
417,"N,N-Dimethylacetamide",CC(=O)N(C)C,323.15,0.003094538,1.279,0.106870545,0.9234137,0.06,21.86516832,12.96891678,18.21113448,22.357133,11.91333865,30.19847525,"A Dean John et al. Lange's handbook of chemistry. In Universitas Of Tennese Knoxville, Fifthenth Edition, Mc. Graw Hill Inc, New York. Conference, 1999."
418,"N,N-Dimethylacetamide",CC(=O)N(C)C,348.15,0.002872325,0.896,-0.04769199,0.89855271,0.11,22.06317822,12.56042312,17.59384816,21.61738231,11.521049,30.39658416,"A Dean John et al. Lange's handbook of chemistry. In Universitas Of Tennese Knoxville, Fifthenth Edition, Mc. Graw Hill Inc, New York. Conference, 1999."
419,N-methylacetanilide,CC(=O)N(C)c1ccccc1,393.15,0.002543558,0.82,-0.086186148,0.988744704,0.08,22.5100495,9.080414005,17.80099482,19.98340842,15.18288646,31.05307921,"WE Wasburn. International critical tables of numerical data, physics, chemistry and technology. 1st electronic edition. Knovel: Norwich, NY, 2003."
420,Acetic acid,CC(=O)O,291.15,0.003434656,1.3,0.113943352,1.091521966,0.01,22.51435644,23.67385411,19.36614574,30.58610355,12.87992847,31.23183168,"Dabir S Viswanath, Tushar K Ghosh, Dasika HL Prasad, Nidamarty VK Dutt, Kalipatnapu Y Rani, Dabir S Viswanath, Tushar K Ghosh, Dasika HL Prasad, Nidamarty VK Dutt, and Kalipatnapu Y Rani. Correlations and estimation of pure liquid viscosity.Viscosity of Liquids: Theory, Estimation, Experiment, and Data, pages 135-405, 2007."
421,acetic acid,CC(=O)O,293.15,0.003411223,1.234,0.09131516,1.078660603,0.04,22.6060495,23.44387391,19.13394255,30.26112221,12.76747415,31.37979208,"WE Wasburn. International critical tables of numerical data, physics, chemistry and technology. 1st electronic edition. Knovel: Norwich, NY, 2003."
422,acetic acid,CC(=O)O,304.01,0.003289365,1.025,0.010723865,1.069020895,0.06,22.67791089,23.10498372,18.95505363,29.8855183,12.59560967,31.48545545,"WE Wasburn. International critical tables of numerical data, physics, chemistry and technology. 1st electronic edition. Knovel: Norwich, NY, 2003."
423,acetic acid,CC(=O)O,308.15,0.003245173,0.991,-0.003926346,1.073726197,0.02,22.64064356,23.10446668,19.03667386,29.93698352,12.59244741,31.43963366,"WE Wasburn. International critical tables of numerical data, physics, chemistry and technology. 1st electronic edition. Knovel: Norwich, NY, 2003."
424,acetic acid,CC(=O)O,313.03,0.003194582,0.903,-0.04431225,1.060881393,0.03,22.73531683,22.90615581,18.79151489,29.62815203,12.49832185,31.54745545,"WE Wasburn. International critical tables of numerical data, physics, chemistry and technology. 1st electronic edition. Knovel: Norwich, NY, 2003."
425,acetic acid,CC(=O)O,318.15,0.003143171,0.865,-0.062983893,1.061901253,0.04,22.72940594,22.93062418,18.78857373,29.64523338,12.51077518,31.60132673,"WE Wasburn. International critical tables of numerical data, physics, chemistry and technology. 1st electronic edition. Knovel: Norwich, NY, 2003."
426,acetic acid,CC(=O)O,321.62,0.003109259,0.806,-0.093664958,1.054426113,0.04,22.78132673,22.66815693,18.66186867,29.36196728,12.37436308,31.63390099,"WE Wasburn. International critical tables of numerical data, physics, chemistry and technology. 1st electronic edition. Knovel: Norwich, NY, 2003."
427,acetic acid,CC(=O)O,328.15,0.003047387,0.76,-0.119186408,1.05276828,0.04,22.79140594,22.50578015,18.62823866,29.2153041,12.28869202,31.67261386,"WE Wasburn. International critical tables of numerical data, physics, chemistry and technology. 1st electronic edition. Knovel: Norwich, NY, 2003."
428,acetic acid,CC(=O)O,330.61,0.003024712,0.721,-0.142064735,1.044715707,0.04,22.84624752,22.41418956,18.47103034,29.04460367,12.2466552,31.7230297,"WE Wasburn. International critical tables of numerical data, physics, chemistry and technology. 1st electronic edition. Knovel: Norwich, NY, 2003."
429,acetic acid,CC(=O)O,338.15,0.002957267,0.676,-0.170053304,1.033511823,0.06,22.93132673,22.12902975,18.27629539,28.70072159,12.11150373,31.81905941,"WE Wasburn. International critical tables of numerical data, physics, chemistry and technology. 1st electronic edition. Knovel: Norwich, NY, 2003."
430,acetic acid,CC(=O)O,341.25,0.002930403,0.638,-0.195179321,1.034663564,0.11,22.92617822,22.07892357,18.28543649,28.66802026,12.07890489,31.81219802,"WE Wasburn. International critical tables of numerical data, physics, chemistry and technology. 1st electronic edition. Knovel: Norwich, NY, 2003."
431,acetic acid,CC(=O)O,349.81,0.002858695,0.58,-0.236572006,1.023321924,0.12,23.00839604,21.7696189,18.06813558,28.29115405,11.92121391,31.96178218,"WE Wasburn. International critical tables of numerical data, physics, chemistry and technology. 1st electronic edition. Knovel: Norwich, NY, 2003."
432,acetic acid,CC(=O)O,357.68,0.002795795,0.534,-0.272458743,1.020879931,0.11,23.02153465,21.60600836,18.02088659,28.13515197,11.83993533,31.93420792,"WE Wasburn. International critical tables of numerical data, physics, chemistry and technology. 1st electronic edition. Knovel: Norwich, NY, 2003."
433,acetic acid,CC(=O)O,358.15,0.002792126,0.546,-0.262807357,1.01637622,0.08,23.059,21.57976416,17.92796848,28.0555405,11.82703778,32.04678218,"WE Wasburn. International critical tables of numerical data, physics, chemistry and technology. 1st electronic edition. Knovel: Norwich, NY, 2003."
434,acetic acid,CC(=O)O,367.12,0.002723905,0.484,-0.315154638,1.001126682,0.17,23.16906931,21.14122644,17.66134481,27.54800408,11.60962286,32.20752475,"WE Wasburn. International critical tables of numerical data, physics, chemistry and technology. 1st electronic edition. Knovel: Norwich, NY, 2003."
435,acetic acid,CC(=O)O,368.15,0.002716284,0.489,-0.310691141,1.009534217,0.16,23.11335644,21.37942878,17.81681153,27.83049512,11.74343059,32.13314851,"WE Wasburn. International critical tables of numerical data, physics, chemistry and technology. 1st electronic edition. Knovel: Norwich, NY, 2003."
436,acetic acid,CC(=O)O,376.04,0.002659292,0.445,-0.351639989,1.00601769,0.11,23.14161386,21.14562354,17.74038878,27.60214214,11.61703125,32.12379208,"WE Wasburn. International critical tables of numerical data, physics, chemistry and technology. 1st electronic edition. Knovel: Norwich, NY, 2003."
437,Acetic acid,CC(=O)O,383.15,0.002609944,0.424,-0.372634143,0.980819645,0.29,23.34106931,20.65946337,17.28829896,26.93903587,11.38115505,32.34367327,"A Dean John et al. Lange's handbook of chemistry. In Universitas Of Tennese Knoxville, Fifthenth Edition, Mc. Graw Hill Inc, New York. Conference, 1999."
438,acetic acid,CC(=O)O,385.72,0.002592554,0.406,-0.391473966,0.998386294,0.16,23.19930693,20.89740819,17.58820118,27.31418869,11.49200653,32.20048515,"WE Wasburn. International critical tables of numerical data, physics, chemistry and technology. 1st electronic edition. Knovel: Norwich, NY, 2003."
439,tert butyl acetate,CC(=O)OC(C)(C)C,298.15,0.003354016,0.48,-0.318758763,0.914582364,0.07,21.92789109,5.604677721,17.39791004,18.27853329,10.73453175,30.13482178,"Valentin Goussard, Francois Duprat, Jean-Luc Ploix, G erard Dreyfus, Veronique Nardello-Rataj, and Jean-Marie Aubry. A new machine-learning tool for fast estimation of liquid viscosity. application to cosmetic oils. Journal of Chemical Information and Modeling, 60(4):2012-2023, 2020."