Index,Name,CANON_SMILES,Temperature (K),Inverse temperature (1/K),Viscosity (cP),log(Viscosity),MD_density,MD_FV,MD_Rg,MD_SP_E,MD_SP_V,MD_SP,MD_HV,MD_RMSD,Reference
440,acetic anhydride,CC(=O)OC(C)=O,273.33,0.003658581,1.238,0.092720645,1.143996533,0.0,22.51213861,12.03944271,21.10888625,24.30098944,13.13856005,31.18418812,"WE Wasburn. International critical tables of numerical data, physics, chemistry and technology. 1st electronic edition. Knovel: Norwich, NY, 2003."
441,acetic anhydride,CC(=O)OC(C)=O,283.15,0.003531697,1.058,0.024485668,1.129629545,0.01,22.60582178,11.83002434,20.78776167,23.91831318,12.91970195,31.22271287,"WE Wasburn. International critical tables of numerical data, physics, chemistry and technology. 1st electronic edition. Knovel: Norwich, NY, 2003."
442,acetic anhydride,CC(=O)OC(C)=O,285.67,0.003500543,1.007,0.003029471,1.132112833,0.01,22.58887129,11.84081723,20.81676719,23.94887222,12.92914268,31.32521782,"WE Wasburn. International critical tables of numerical data, physics, chemistry and technology. 1st electronic edition. Knovel: Norwich, NY, 2003."
443,acetic anhydride,CC(=O)OC(C)=O,288.15,0.003470415,0.979,-0.009217308,1.123850322,0.01,22.64314851,11.73895524,20.64589991,23.74998391,12.81896897,31.39218812,"WE Wasburn. International critical tables of numerical data, physics, chemistry and technology. 1st electronic edition. Knovel: Norwich, NY, 2003."
444,acetic anhydride,CC(=O)OC(C)=O,297.25,0.003364172,0.852,-0.069560405,1.110363963,0.02,22.73792079,11.52365006,20.34687727,23.3836457,12.60636909,31.44326733,"WE Wasburn. International critical tables of numerical data, physics, chemistry and technology. 1st electronic edition. Knovel: Norwich, NY, 2003."
445,acetic anhydride,CC(=O)OC(C)=O,308.55,0.003240966,0.734,-0.13430394,1.100232984,0.03,22.80834653,11.37205054,20.10490906,23.09837763,12.44541877,31.60351485,"WE Wasburn. International critical tables of numerical data, physics, chemistry and technology. 1st electronic edition. Knovel: Norwich, NY, 2003."
446,Acetic anhydride,CC(=O)OC(C)=O,313.15,0.003193358,0.699,-0.155522824,1.092101468,0.03,22.8619901,11.25990985,19.92723787,22.88851994,12.32702427,31.61709901,"A Dean John et al. Lange's handbook of chemistry. In Universitas Of Tennese Knoxville, Fifthenth Edition, Mc. Graw Hill Inc, New York. Conference, 1999."
447,acetic anhydride,CC(=O)OC(C)=O,321.3,0.003112356,0.63,-0.200659451,1.086743841,0.03,22.90623762,11.16859339,19.79185766,22.72575571,12.23423523,31.62540594,"WE Wasburn. International critical tables of numerical data, physics, chemistry and technology. 1st electronic edition. Knovel: Norwich, NY, 2003."
448,acetic anhydride,CC(=O)OC(C)=O,333.54,0.002998141,0.551,-0.258848401,1.080507253,0.05,22.94330693,11.03195012,19.61088373,22.5010514,12.09598783,31.73240594,"WE Wasburn. International critical tables of numerical data, physics, chemistry and technology. 1st electronic edition. Knovel: Norwich, NY, 2003."
449,acetic anhydride,CC(=O)OC(C)=O,344.19,0.002905372,0.494,-0.306273051,1.06501757,0.05,23.05071287,10.82181862,19.27390482,22.10433652,11.87805592,31.89672277,"WE Wasburn. International critical tables of numerical data, physics, chemistry and technology. 1st electronic edition. Knovel: Norwich, NY, 2003."
450,acetic anhydride,CC(=O)OC(C)=O,349.65,0.002860003,0.462,-0.335358024,1.060765841,0.14,23.08841584,10.7589244,19.16861018,21.98175923,11.80944264,31.95863366,"WE Wasburn. International critical tables of numerical data, physics, chemistry and technology. 1st electronic edition. Knovel: Norwich, NY, 2003."
451,acetic anhydride,CC(=O)OC(C)=O,357.57,0.002796655,0.434,-0.362510271,1.05218802,0.09,23.14893069,10.61941415,18.97237437,21.74234554,11.67306054,32.06459406,"WE Wasburn. International critical tables of numerical data, physics, chemistry and technology. 1st electronic edition. Knovel: Norwich, NY, 2003."
452,acetic anhydride,CC(=O)OC(C)=O,368.24,0.00271562,0.394,-0.404503778,1.041849369,0.08,23.22323762,10.46973353,18.73603503,21.46304693,11.52042562,32.18634653,"WE Wasburn. International critical tables of numerical data, physics, chemistry and technology. 1st electronic edition. Knovel: Norwich, NY, 2003."
453,acetic anhydride,CC(=O)OC(C)=O,382.07,0.002617321,0.351,-0.454692884,1.025895395,0.16,23.33926733,10.24962783,18.38056135,21.04535687,11.29341195,32.29263366,"WE Wasburn. International critical tables of numerical data, physics, chemistry and technology. 1st electronic edition. Knovel: Norwich, NY, 2003."
454,acetic anhydride,CC(=O)OC(C)=O,393.38,0.002542071,0.32,-0.494850022,1.016206779,0.14,23.41218812,10.08544568,18.1532722,20.76689314,11.13675236,32.46534653,"WE Wasburn. International critical tables of numerical data, physics, chemistry and technology. 1st electronic edition. Knovel: Norwich, NY, 2003."
455,isopropyl acetate,CC(=O)OC(C)C,291.15,0.003434656,0.568852931,-0.245,0.914923635,0.06,22.18283168,6.385553342,17.66054738,18.77968361,9.988075456,30.63383168,"Marina Cocchi, Pier Giuseppe De Benedetti, Renato Seeber, Lorenzo Tassi, and Alessandro Ulrici. Development of quantitative structure- property relationships using calculated descriptors for the prediction of the physicochemical properties of a series of organic solvents. Journal of chemical information and computer sciences, 39(6):1190-1203, 1999."
456,isopropyl acetate,CC(=O)OC(C)C,293.1,0.003411805,0.52,-0.283996656,0.911218511,0.07,22.21220792,6.3552048,17.56463625,18.67914253,9.929308368,30.61388119,"Diego Alonso Saldana, Laurie Starck, Pascal Mougin, Bernard Rousseau, Nicolas Ferrando, and Benoit Creton. Prediction of density and viscosity of biofuel compounds using machine learning methods. Energy & fuels, 26(4):2416-2426, 2012."
457,isopropyl acetate,CC(=O)OC(C)C,298.1,0.003354579,0.49,-0.30980392,0.909042848,0.09,22.22450495,6.319759257,17.49725752,18.60376349,9.886165245,30.70720792,"Diego Alonso Saldana, Laurie Starck, Pascal Mougin, Bernard Rousseau, Nicolas Ferrando, and Benoit Creton. Prediction of density and viscosity of biofuel compounds using machine learning methods. Energy & fuels, 26(4):2416-2426, 2012."
458,isopropyl acetate,CC(=O)OC(C)C,308.1,0.003245699,0.43,-0.366531544,0.896348397,0.13,22.32893069,6.192440156,17.18153956,18.26355424,9.696110945,30.82453465,"Diego Alonso Saldana, Laurie Starck, Pascal Mougin, Bernard Rousseau, Nicolas Ferrando, and Benoit Creton. Prediction of density and viscosity of biofuel compounds using machine learning methods. Energy & fuels, 26(4):2416-2426, 2012."
459,4-methyl-2-pentyl acetate,CC(=O)OC(C)CC(C)C,293.15,0.003411223,0.93,-0.031517051,0.890661842,0.07,21.78848515,4.597343229,16.89743836,17.51183408,12.4502387,29.9800198,"Sunghwan Kim, Paul A Thiessen, Tiejun Cheng, Jian Zhang, Asta Gindulyte, and Evan E Bolton. Pug-view: programmatic access to chemical annotations integrated in pubchem. Journal of cheminformatics, 11(1):1-11, 2019."
460,cyclohexyl acetate,CC(=O)OC1CCCCC1,283.6,0.003526093,2.85,0.45484486,0.991914841,0.02,21.50271287,5.22854371,18.60474698,19.32562808,13.36018373,29.6429802,"Diego Alonso Saldana, Laurie Starck, Pascal Mougin, Bernard Rousseau, Nicolas Ferrando, and Benoit Creton. Prediction of density and viscosity of biofuel compounds using machine learning methods. Energy & fuels, 26(4):2416-2426, 2012."
461,cyclohexyl acetate,CC(=O)OC1CCCCC1,298.6,0.003348962,2.0,0.301029996,0.965315588,0.07,21.69837624,5.002572377,17.97077617,18.65426626,12.84489181,29.77311881,"Diego Alonso Saldana, Laurie Starck, Pascal Mougin, Bernard Rousseau, Nicolas Ferrando, and Benoit Creton. Prediction of density and viscosity of biofuel compounds using machine learning methods. Energy & fuels, 26(4):2416-2426, 2012."
462,cyclohexyl acetate,CC(=O)OC1CCCCC1,313.7,0.003187759,1.51,0.178976947,0.954338659,0.06,21.7779802,4.883297349,17.67277615,18.33517781,12.59546998,29.9020396,"Diego Alonso Saldana, Laurie Starck, Pascal Mougin, Bernard Rousseau, Nicolas Ferrando, and Benoit Creton. Prediction of density and viscosity of biofuel compounds using machine learning methods. Energy & fuels, 26(4):2416-2426, 2012."
463,cyclohexyl acetate,CC(=O)OC1CCCCC1,333.1,0.003002101,1.11,0.045322979,0.933625279,0.14,21.93765347,4.704480722,17.15589143,17.78939354,12.18193561,30.15891089,"Diego Alonso Saldana, Laurie Starck, Pascal Mougin, Bernard Rousseau, Nicolas Ferrando, and Benoit Creton. Prediction of density and viscosity of biofuel compounds using machine learning methods. Energy & fuels, 26(4):2416-2426, 2012."
464,cyclohexyl acetate,CC(=O)OC1CCCCC1,348.8,0.002866972,0.9,-0.045757491,0.924611881,0.21,22.01229703,4.589877641,16.91742805,17.52919312,11.98764418,30.18724752,"Diego Alonso Saldana, Laurie Starck, Pascal Mougin, Bernard Rousseau, Nicolas Ferrando, and Benoit Creton. Prediction of density and viscosity of biofuel compounds using machine learning methods. Energy & fuels, 26(4):2416-2426, 2012."
465,isobutyl acetate,CC(=O)OCC(C)C,293.05,0.003412387,0.724,-0.140261434,0.897571234,0.07,22.06976238,5.796896786,17.12811543,18.08266636,10.69631185,30.3790099,"WE Wasburn. International critical tables of numerical data, physics, chemistry and technology. 1st electronic edition. Knovel: Norwich, NY, 2003."
466,isobutyl acetate,CC(=O)OCC(C)C,351.25,0.002846975,0.366,-0.436518915,0.825667193,0.33,22.68808911,5.061778523,15.3868273,16.19822467,9.520600159,31.31489109,"WE Wasburn. International critical tables of numerical data, physics, chemistry and technology. 1st electronic edition. Knovel: Norwich, NY, 2003."
467,isobutyl acetate,CC(=O)OCC(C)C,372.55,0.002684203,0.287,-0.542118103,0.810180561,0.51,22.8320396,4.916544733,14.99903825,15.78446979,9.278099048,31.39431683,"WE Wasburn. International critical tables of numerical data, physics, chemistry and technology. 1st electronic edition. Knovel: Norwich, NY, 2003."
468,triacetin,CC(=O)OCC(COC(C)=O)OC(C)=O,328.15,0.003047387,4.79,0.680335513,1.154077985,0.04,22.12016832,9.92866606,19.04972436,21.48200923,21.50613737,29.40217822,"WE Wasburn. International critical tables of numerical data, physics, chemistry and technology. 1st electronic edition. Knovel: Norwich, NY, 2003."
469,Isoamyl acetate,CC(=O)OCCC(C)C,282.12,0.003544591,1.03,0.012837225,0.896488817,0.07,21.89029703,5.353484397,17.23721354,18.04955234,11.86806038,30.20650495,"Sunghwan Kim, Paul A Thiessen, Tiejun Cheng, Jian Zhang, Asta Gindulyte, and Evan E Bolton. Pug-view: programmatic access to chemical annotations integrated in pubchem. Journal of cheminformatics, 11(1):1-11, 2019."
470,Isoamyl acetate,CC(=O)OCCC(C)C,293.06,0.003412271,0.872,-0.059483515,0.89564995,0.07,21.90029703,5.285898614,17.18328417,17.97815451,11.81104945,30.17472277,"Sunghwan Kim, Paul A Thiessen, Tiejun Cheng, Jian Zhang, Asta Gindulyte, and Evan E Bolton. Pug-view: programmatic access to chemical annotations integrated in pubchem. Journal of cheminformatics, 11(1):1-11, 2019."
471,Isopentyl acetate,CC(=O)OCCC(C)C,293.15,0.003411223,0.872,-0.059483515,0.891783017,0.08,21.9310396,5.255048517,17.09354784,17.88327742,11.74119235,30.28323762,"A Dean John et al. Lange's handbook of chemistry. In Universitas Of Tennese Knoxville, Fifthenth Edition, Mc. Graw Hill Inc, New York. Conference, 1999."
472,benzyl acetate,CC(=O)OCc1ccccc1,318.1,0.003143666,1.4,0.146128036,1.05425371,0.03,22.41664356,8.129062356,18.8545494,20.53244043,14.98529697,30.91930693,"Diego Alonso Saldana, Laurie Starck, Pascal Mougin, Bernard Rousseau, Nicolas Ferrando, and Benoit Creton. Prediction of density and viscosity of biofuel compounds using machine learning methods. Energy & fuels, 26(4):2416-2426, 2012."
473,Peracetic acid,CC(=O)OO,298.7055556,0.003347778,3.28,0.515873844,1.151541919,0.02,23.00989109,14.6944889,19.65862045,24.5439323,10.10241113,31.94386139,"Sunghwan Kim, Paul A Thiessen, Tiejun Cheng, Jian Zhang, Asta Gindulyte, and Evan E Bolton. Pug-view: programmatic access to chemical annotations integrated in pubchem. Journal of cheminformatics, 11(1):1-11, 2019."
474,phenyl acetate,CC(=O)Oc1ccccc1,251.3,0.003979308,6.25,0.795880017,1.146640067,0.0,22.21827723,9.925692699,21.02301345,23.24847982,15.8380587,28.67948515,"Diego Alonso Saldana, Laurie Starck, Pascal Mougin, Bernard Rousseau, Nicolas Ferrando, and Benoit Creton. Prediction of density and viscosity of biofuel compounds using machine learning methods. Energy & fuels, 26(4):2416-2426, 2012."
475,phenyl acetate,CC(=O)Oc1ccccc1,266.8,0.003748126,4.36,0.639486489,1.131560406,0.0,22.31665347,9.663188986,20.6583287,22.80678355,15.48828268,30.59035644,"Diego Alonso Saldana, Laurie Starck, Pascal Mougin, Bernard Rousseau, Nicolas Ferrando, and Benoit Creton. Prediction of density and viscosity of biofuel compounds using machine learning methods. Energy & fuels, 26(4):2416-2426, 2012."
476,phenyl acetate,CC(=O)Oc1ccccc1,282.4,0.003541076,3.2,0.505149978,1.119361462,0.01,22.39526733,9.433542231,20.35536781,22.43520471,15.19360016,30.95244554,"Diego Alonso Saldana, Laurie Starck, Pascal Mougin, Bernard Rousseau, Nicolas Ferrando, and Benoit Creton. Prediction of density and viscosity of biofuel compounds using machine learning methods. Energy & fuels, 26(4):2416-2426, 2012."
477,phenyl acetate,CC(=O)Oc1ccccc1,297.9,0.003356831,2.44,0.387389826,1.104727691,0.01,22.49425743,9.186440126,20.00588372,22.01437185,14.86726575,31.05393069,"Diego Alonso Saldana, Laurie Starck, Pascal Mougin, Bernard Rousseau, Nicolas Ferrando, and Benoit Creton. Prediction of density and viscosity of biofuel compounds using machine learning methods. Energy & fuels, 26(4):2416-2426, 2012."
478,phenyl acetate,CC(=O)Oc1ccccc1,313.5,0.003189793,1.92,0.283301229,1.086470236,0.02,22.62235644,8.915864877,19.58210179,21.51647297,14.4889775,31.31611881,"Diego Alonso Saldana, Laurie Starck, Pascal Mougin, Bernard Rousseau, Nicolas Ferrando, and Benoit Creton. Prediction of density and viscosity of biofuel compounds using machine learning methods. Energy & fuels, 26(4):2416-2426, 2012."
479,phenyl acetate,CC(=O)Oc1ccccc1,318.1,0.003143666,1.8,0.255272505,1.085929832,0.02,22.62355446,8.908424893,19.54139121,21.4763042,14.45327176,31.27174257,"Diego Alonso Saldana, Laurie Starck, Pascal Mougin, Bernard Rousseau, Nicolas Ferrando, and Benoit Creton. Prediction of density and viscosity of biofuel compounds using machine learning methods. Energy & fuels, 26(4):2416-2426, 2012."
480,phenyl acetate,CC(=O)Oc1ccccc1,329.0,0.003039514,1.56,0.193124598,1.070236593,0.03,22.73408911,8.686072587,19.20057107,21.07401881,14.15714595,31.37706931,"Diego Alonso Saldana, Laurie Starck, Pascal Mougin, Bernard Rousseau, Nicolas Ferrando, and Benoit Creton. Prediction of density and viscosity of biofuel compounds using machine learning methods. Energy & fuels, 26(4):2416-2426, 2012."
481,phenyl acetate,CC(=O)Oc1ccccc1,344.5,0.002902758,1.29,0.11058971,1.065585519,0.05,22.76992079,8.539655045,19.05797981,20.88392146,14.00334044,31.42437624,"Diego Alonso Saldana, Laurie Starck, Pascal Mougin, Bernard Rousseau, Nicolas Ferrando, and Benoit Creton. Prediction of density and viscosity of biofuel compounds using machine learning methods. Energy & fuels, 26(4):2416-2426, 2012."
482,phenyl acetate,CC(=O)Oc1ccccc1,360.1,0.002777006,1.08,0.033423755,1.036525852,0.05,22.97446535,8.210522571,18.42991502,20.17625161,13.4955138,31.77054455,"Diego Alonso Saldana, Laurie Starck, Pascal Mougin, Bernard Rousseau, Nicolas Ferrando, and Benoit Creton. Prediction of density and viscosity of biofuel compounds using machine learning methods. Energy & fuels, 26(4):2416-2426, 2012."
483,phenyl acetate,CC(=O)Oc1ccccc1,375.6,0.002662407,0.93,-0.031517051,1.024065626,0.12,23.06569307,8.011746593,18.1380603,19.8288867,13.24025655,31.91556436,"Diego Alonso Saldana, Laurie Starck, Pascal Mougin, Bernard Rousseau, Nicolas Ferrando, and Benoit Creton. Prediction of density and viscosity of biofuel compounds using machine learning methods. Energy & fuels, 26(4):2416-2426, 2012."
484,phenyl acetate,CC(=O)Oc1ccccc1,391.1,0.002556891,0.8,-0.096910013,1.017652025,0.15,23.11980198,7.883335312,17.96973928,19.62311327,13.09019128,31.84123762,"Diego Alonso Saldana, Laurie Starck, Pascal Mougin, Bernard Rousseau, Nicolas Ferrando, and Benoit Creton. Prediction of density and viscosity of biofuel compounds using machine learning methods. Energy & fuels, 26(4):2416-2426, 2012."
485,4-hydroxyacetophenone,CC(=O)c1ccc(O)cc1,387.8,0.002578649,8.97,0.952792443,1.106099832,0.05,22.48766337,16.33030416,18.57954401,24.73644557,18.77210155,31.09047525,"Diego Alonso Saldana, Laurie Starck, Pascal Mougin, Bernard Rousseau, Nicolas Ferrando, and Benoit Creton. Prediction of density and viscosity of biofuel compounds using machine learning methods. Energy & fuels, 26(4):2416-2426, 2012."
486,4-hydroxyacetophenone,CC(=O)c1ccc(O)cc1,392.2,0.00254972,7.64,0.883093359,1.101366441,0.04,22.52050495,16.20362365,18.48230181,24.57986464,18.63007601,31.10553465,"Diego Alonso Saldana, Laurie Starck, Pascal Mougin, Bernard Rousseau, Nicolas Ferrando, and Benoit Creton. Prediction of density and viscosity of biofuel compounds using machine learning methods. Energy & fuels, 26(4):2416-2426, 2012."
487,4-hydroxyacetophenone,CC(=O)c1ccc(O)cc1,402.5,0.002484472,5.68,0.754348336,1.095188186,0.06,22.56133663,15.99483317,18.34650884,24.34017244,18.4028326,31.23336634,"Diego Alonso Saldana, Laurie Starck, Pascal Mougin, Bernard Rousseau, Nicolas Ferrando, and Benoit Creton. Prediction of density and viscosity of biofuel compounds using machine learning methods. Energy & fuels, 26(4):2416-2426, 2012."
488,acetophenone,CC(=O)c1ccccc1,289.15,0.003458413,1.99,0.298853076,1.04326155,0.02,22.41048515,9.403996589,19.58136322,21.72256472,13.56325773,31.00565347,"WE Wasburn. International critical tables of numerical data, physics, chemistry and technology. 1st electronic edition. Knovel: Norwich, NY, 2003."
489,Acetophenone,CC(=O)c1ccccc1,303.15,0.003298697,1.511,0.179264464,1.034410341,0.02,22.47751485,9.235739921,19.34798678,21.43941271,13.36295161,31.03124752,"A Dean John et al. Lange's handbook of chemistry. In Universitas Of Tennese Knoxville, Fifthenth Edition, Mc. Graw Hill Inc, New York. Conference, 1999."
490,Acetophenone,CC(=O)c1ccccc1,318.15,0.003143171,1.192,0.076276255,1.014361845,0.03,22.62912871,8.960870049,18.88387459,20.90222281,13.00103396,31.32271287,"A Dean John et al. Lange's handbook of chemistry. In Universitas Of Tennese Knoxville, Fifthenth Edition, Mc. Graw Hill Inc, New York. Conference, 1999."
491,acetophenone,CC(=O)c1ccccc1,368.15,0.002716284,0.653,-0.185086819,0.971938535,0.14,22.94470297,8.297058814,17.86624182,19.69897128,12.19687457,31.71981188,"WE Wasburn. International critical tables of numerical data, physics, chemistry and technology. 1st electronic edition. Knovel: Norwich, NY, 2003."
492,"l,2-dibromopropane",CC(Br)CBr,273.51,0.003656173,2.285,0.358886204,2.079298453,0.02,24.47905941,7.828734654,19.91764744,21.40107702,11.17251425,33.94270297,"WE Wasburn. International critical tables of numerical data, physics, chemistry and technology. 1st electronic edition. Knovel: Norwich, NY, 2003."
493,"l,2-dibromopropane",CC(Br)CBr,286.06,0.00349577,1.816,0.259115844,2.068411485,0.02,24.52435644,7.732117982,19.74742735,21.20737166,11.06085058,33.81917822,"WE Wasburn. International critical tables of numerical data, physics, chemistry and technology. 1st electronic edition. Knovel: Norwich, NY, 2003."
494,"1,2-dibromopropane",CC(Br)CBr,293.15,0.003411223,1.623,0.21031852,2.047887602,0.05,24.60609901,7.672906558,19.50140009,20.95673698,10.93108792,34.06782178,"Sunghwan Kim, Paul A Thiessen, Tiejun Cheng, Jian Zhang, Asta Gindulyte, and Evan E Bolton. Pug-view: programmatic access to chemical annotations integrated in pubchem. Journal of cheminformatics, 11(1):1-11, 2019."