Index,Name,CANON_SMILES,Temperature (K),Inverse temperature (1/K),Viscosity (cP),log(Viscosity),MD_density,MD_FV,MD_Rg,MD_SP_E,MD_SP_V,MD_SP,MD_HV,MD_RMSD,Reference
2333,"6,8,10-triethyl-2,2,4,4,6,8,10,12,12,14,14-undecamethyl-5,7,9,11-tetraoxa-2,4,6,8,10,12,14-heptasila-pentadecane",CC[Si](C)(O[Si](C)(C)C[Si](C)(C)C)O[Si](C)(CC)O[Si](C)(CC)O[Si](C)(C)C[Si](C)(C)C,298.15,0.003354016,6.3,0.79934055,0.902797908,0.28,22.69270297,0.542709003,12.33843146,12.35067752,23.66313427,30.16750495,"Valentin Goussard, Francois Duprat, Jean-Luc Ploix, G erard Dreyfus, Veronique Nardello-Rataj, and Jean-Marie Aubry. A new machine-learning tool for fast estimation of liquid viscosity. application to cosmetic oils. Journal of Chemical Information and Modeling, 60(4):2012-2023, 2020."
2334,tetraethylsilane,CC[Si](CC)(CC)CC,298.15,0.003354016,0.6,-0.22184875,0.750460923,0.22,22.25130693,0.435151256,13.89975025,13.90683078,9.482519144,30.43111881,"Valentin Goussard, Francois Duprat, Jean-Luc Ploix, G erard Dreyfus, Veronique Nardello-Rataj, and Jean-Marie Aubry. A new machine-learning tool for fast estimation of liquid viscosity. application to cosmetic oils. Journal of Chemical Information and Modeling, 60(4):2012-2023, 2020."
2335,"3,3-diethyl-1,1,1,5,5,5-hexamethyl-trisiloxane",CC[Si](CC)(O[Si](C)(C)C)O[Si](C)(C)C,298.15,0.003354016,1.3,0.113943352,0.830355736,0.37,23.13050495,0.692640231,12.4853358,12.50490736,12.50153791,31.43154455,"Valentin Goussard, Francois Duprat, Jean-Luc Ploix, G erard Dreyfus, Veronique Nardello-Rataj, and Jean-Marie Aubry. A new machine-learning tool for fast estimation of liquid viscosity. application to cosmetic oils. Journal of Chemical Information and Modeling, 60(4):2012-2023, 2020."
2336,"3-ethyl-1,1,1,5,5,5-hexamethyl-3-trimethylsilanyloxy-trisiloxane",CC[Si](O[Si](C)(C)C)(O[Si](C)(C)C)O[Si](C)(C)C,298.15,0.003354016,1.7,0.230448921,0.851540933,0.46,23.30787129,0.696509977,12.0919385,12.11259007,13.96407952,31.86849505,"Valentin Goussard, Francois Duprat, Jean-Luc Ploix, G erard Dreyfus, Veronique Nardello-Rataj, and Jean-Marie Aubry. A new machine-learning tool for fast estimation of liquid viscosity. application to cosmetic oils. Journal of Chemical Information and Modeling, 60(4):2012-2023, 2020."
2337,p-ethyltoluene,CCc1ccc(C)cc1,283.1,0.003532321,0.8,-0.096910013,0.875875398,0.04,22.1409901,4.359211827,17.43558173,17.9724188,11.15667451,30.49987129,"Diego Alonso Saldana, Laurie Starck, Pascal Mougin, Bernard Rousseau, Nicolas Ferrando, and Benoit Creton. Prediction of density and viscosity of biofuel compounds using machine learning methods. Energy & fuels, 26(4):2416-2426, 2012."
2338,p-ethyltoluene,CCc1ccc(C)cc1,288.1,0.003471017,0.75,-0.124938737,0.877903834,0.07,22.1259604,4.360856805,17.46872564,18.00497109,11.18046517,30.54824752,"Diego Alonso Saldana, Laurie Starck, Pascal Mougin, Bernard Rousseau, Nicolas Ferrando, and Benoit Creton. Prediction of density and viscosity of biofuel compounds using machine learning methods. Energy & fuels, 26(4):2416-2426, 2012."
2339,p-ethyltoluene,CCc1ccc(C)cc1,293.1,0.003411805,0.7,-0.15490196,0.865581914,0.08,22.2349604,4.241716739,17.16400624,17.68057008,10.95720774,30.64952475,"Diego Alonso Saldana, Laurie Starck, Pascal Mougin, Bernard Rousseau, Nicolas Ferrando, and Benoit Creton. Prediction of density and viscosity of biofuel compounds using machine learning methods. Energy & fuels, 26(4):2416-2426, 2012."
2340,"1,4-diethylbenzene",CCc1ccc(CC)cc1,230.32,0.004341785,3.6,0.556302501,0.923755628,0.01,21.59431683,4.306679189,18.71020606,19.19960587,13.25910835,29.74629703,"Sunghwan Kim, Paul A Thiessen, Tiejun Cheng, Jian Zhang, Asta Gindulyte, and Evan E Bolton. Pug-view: programmatic access to chemical annotations integrated in pubchem. Journal of cheminformatics, 11(1):1-11, 2019."
2341,p-diethylbenzene,CCc1ccc(CC)cc1,298.15,0.003354016,0.89,-0.050609993,0.857539275,0.14,22.13972277,3.621670559,16.94185612,17.32483306,11.82080727,30.49424752,"Valentin Goussard, Francois Duprat, Jean-Luc Ploix, G erard Dreyfus, Veronique Nardello-Rataj, and Jean-Marie Aubry. A new machine-learning tool for fast estimation of liquid viscosity. application to cosmetic oils. Journal of Chemical Information and Modeling, 60(4):2012-2023, 2020."
2342,m-ethyltoluene,CCc1cccc(C)c1,298.15,0.003354016,0.66,-0.180456065,0.866447061,0.06,22.2200396,4.256679555,17.17439357,17.69423991,10.97291713,30.60722772,"Valentin Goussard, Francois Duprat, Jean-Luc Ploix, G erard Dreyfus, Veronique Nardello-Rataj, and Jean-Marie Aubry. A new machine-learning tool for fast estimation of liquid viscosity. application to cosmetic oils. Journal of Chemical Information and Modeling, 60(4):2012-2023, 2020."
2343,m-diethylbenzene,CCc1cccc(CC)c1,298.15,0.003354016,0.8,-0.096910013,0.861305917,0.11,22.0990099,3.686449722,17.0049273,17.40009227,11.86904753,30.36758416,"Valentin Goussard, Francois Duprat, Jean-Luc Ploix, G erard Dreyfus, Veronique Nardello-Rataj, and Jean-Marie Aubry. A new machine-learning tool for fast estimation of liquid viscosity. application to cosmetic oils. Journal of Chemical Information and Modeling, 60(4):2012-2023, 2020."
2344,"2,6-diethylaniline",CCc1cccc(CC)c1N,276.65,0.003614676,9.97,0.998695158,0.963906163,0.01,21.46946535,6.390523016,18.3363318,19.4182418,14.50278283,29.46735644,"Sunghwan Kim, Paul A Thiessen, Tiejun Cheng, Jian Zhang, Asta Gindulyte, and Evan E Bolton. Pug-view: programmatic access to chemical annotations integrated in pubchem. Journal of cheminformatics, 11(1):1-11, 2019."
2345,ethylbenzene,CCc1ccccc1,273.56,0.003655505,0.869,-0.060980224,0.892265423,0.06,22.23737624,4.81163631,17.80321901,18.44213028,10.21589702,30.5649505,"WE Wasburn. International critical tables of numerical data, physics, chemistry and technology. 1st electronic edition. Knovel: Norwich, NY, 2003."
2346,ethylbenzene,CCc1ccccc1,284.56,0.003514197,0.744,-0.128427065,0.883816735,0.07,22.30876238,4.684996424,17.5858009,18.19933731,10.07479965,30.77411881,"WE Wasburn. International critical tables of numerical data, physics, chemistry and technology. 1st electronic edition. Knovel: Norwich, NY, 2003."
2347,ethylbenzene,CCc1ccccc1,294.81,0.003392015,0.654,-0.184422252,0.877390306,0.09,22.35492079,4.591804693,17.39720856,17.99318792,9.949051735,30.86546535,"WE Wasburn. International critical tables of numerical data, physics, chemistry and technology. 1st electronic edition. Knovel: Norwich, NY, 2003."
2348,ethylbenzene,CCc1ccccc1,306.05,0.00326744,0.572,-0.242603971,0.862735757,0.18,22.48784158,4.440098781,17.03501757,17.60438636,9.723357826,30.99644554,"WE Wasburn. International critical tables of numerical data, physics, chemistry and technology. 1st electronic edition. Knovel: Norwich, NY, 2003."
2349,ethylbenzene,CCc1ccccc1,320.26,0.003122463,0.491,-0.308918508,0.841360715,0.26,22.67322772,4.215510811,16.51146559,17.04130649,9.394814246,31.31576238,"WE Wasburn. International critical tables of numerical data, physics, chemistry and technology. 1st electronic edition. Knovel: Norwich, NY, 2003."
2350,ethylbenzene,CCc1ccccc1,333.66,0.002997063,0.43,-0.366531544,0.835224327,0.21,22.72406931,4.116350954,16.33509195,16.84601474,9.284743351,31.37843564,"WE Wasburn. International critical tables of numerical data, physics, chemistry and technology. 1st electronic edition. Knovel: Norwich, NY, 2003."
2351,ethylbenzene,CCc1ccccc1,346.96,0.002882177,0.381,-0.419075024,0.816422832,0.28,22.90410891,3.938157237,15.88886999,16.3698776,9.018188024,31.50213861,"WE Wasburn. International critical tables of numerical data, physics, chemistry and technology. 1st electronic edition. Knovel: Norwich, NY, 2003."
2352,ethylbenzene,CCc1ccccc1,356.77,0.002802926,0.349,-0.457174573,0.81329763,0.42,22.94023762,3.892138772,15.78929149,16.26221583,8.960067984,31.69225743,"WE Wasburn. International critical tables of numerical data, physics, chemistry and technology. 1st electronic edition. Knovel: Norwich, NY, 2003."
2353,ethylbenzene,CCc1ccccc1,368.75,0.002711864,0.316,-0.500312917,0.804968095,0.48,23.01051485,3.778413472,15.57721935,16.02919731,8.832085621,31.67681188,"WE Wasburn. International critical tables of numerical data, physics, chemistry and technology. 1st electronic edition. Knovel: Norwich, NY, 2003."
2354,ethylbenzene,CCc1ccccc1,381.12,0.002623846,0.287,-0.542118103,0.777639646,0.67,23.2740198,3.567897599,14.95415995,15.37418004,8.470098942,32.17835644,"WE Wasburn. International critical tables of numerical data, physics, chemistry and technology. 1st electronic edition. Knovel: Norwich, NY, 2003."
2355,ethylbenzene,CCc1ccccc1,392.34,0.00254881,0.263,-0.580044252,0.783435427,0.67,23.22618812,3.578010785,15.04146099,15.46143743,8.522483587,32.04552475,"WE Wasburn. International critical tables of numerical data, physics, chemistry and technology. 1st electronic edition. Knovel: Norwich, NY, 2003."
2356,o-ethyltoluene,CCc1ccccc1C,298.15,0.003354016,0.71,-0.148741651,0.875632551,0.07,22.1459703,4.308480765,17.20688948,17.73828348,10.91523523,30.50905941,"Valentin Goussard, Francois Duprat, Jean-Luc Ploix, G erard Dreyfus, Veronique Nardello-Rataj, and Jean-Marie Aubry. A new machine-learning tool for fast estimation of liquid viscosity. application to cosmetic oils. Journal of Chemical Information and Modeling, 60(4):2012-2023, 2020."
2357,o-diethylbenzene,CCc1ccccc1CC,298.15,0.003354016,0.9,-0.045757491,0.87751292,0.09,21.9679703,3.756951826,17.16305269,17.56966965,11.87755854,30.21689109,"Valentin Goussard, Francois Duprat, Jean-Luc Ploix, G erard Dreyfus, Veronique Nardello-Rataj, and Jean-Marie Aubry. A new machine-learning tool for fast estimation of liquid viscosity. application to cosmetic oils. Journal of Chemical Information and Modeling, 60(4):2012-2023, 2020."
2358,methyl iodide,CI,273.57,0.003655372,0.5914,-0.22811868,2.462927411,0.05,26.74674257,8.877641855,19.01312901,20.98364954,6.608432041,37.26885149,"WE Wasburn. International critical tables of numerical data, physics, chemistry and technology. 1st electronic edition. Knovel: Norwich, NY, 2003."
2359,methyl iodide,CI,279.21,0.003581534,0.5576,-0.253677235,2.437914997,0.07,26.84422772,8.774630906,18.79639454,20.74368534,6.542524553,37.3230198,"WE Wasburn. International critical tables of numerical data, physics, chemistry and technology. 1st electronic edition. Knovel: Norwich, NY, 2003."
2360,methyl iodide,CI,283.68,0.003525099,0.533,-0.273272791,2.421641688,0.08,26.89994059,8.700274677,18.64451153,20.57461311,6.493788583,37.47936634,"WE Wasburn. International critical tables of numerical data, physics, chemistry and technology. 1st electronic edition. Knovel: Norwich, NY, 2003."
2361,methyl iodide,CI,288.96,0.003460687,0.5064,-0.295506303,2.411408052,0.11,26.93393069,8.645556954,18.54389481,20.46030988,6.463463979,37.49816832,"WE Wasburn. International critical tables of numerical data, physics, chemistry and technology. 1st electronic edition. Knovel: Norwich, NY, 2003."
2362,methyl iodide,CI,294.52,0.003395355,0.481,-0.317854924,2.396284519,0.12,26.99677228,8.578489201,18.40070229,20.30217404,6.420423293,37.56919802,"WE Wasburn. International critical tables of numerical data, physics, chemistry and technology. 1st electronic edition. Knovel: Norwich, NY, 2003."
2363,methyl iodide,CI,300.37,0.003329227,0.4564,-0.340654364,2.383047481,0.12,27.03974257,8.513760093,18.27015033,20.15650646,6.380565987,37.66047525,"WE Wasburn. International critical tables of numerical data, physics, chemistry and technology. 1st electronic edition. Knovel: Norwich, NY, 2003."
2364,methyl iodide,CI,306.53,0.003262323,0.4323,-0.364214765,2.333522078,0.18,27.2309802,8.33049083,17.86230689,19.70942477,6.25644807,37.91944554,"WE Wasburn. International critical tables of numerical data, physics, chemistry and technology. 1st electronic edition. Knovel: Norwich, NY, 2003."
2365,methyl iodide,CI,313.11,0.003193766,0.409,-0.388276692,2.331173776,0.18,27.24453465,8.300003583,17.81723658,19.6556872,6.244427443,37.95893069,"WE Wasburn. International critical tables of numerical data, physics, chemistry and technology. 1st electronic edition. Knovel: Norwich, NY, 2003."
2366,Trimethylamine,CN(C)C,306.65,0.003261047,0.321,-0.493494968,0.622239951,1.33,22.99115842,5.604425738,12.37946202,13.58919201,4.802259686,31.72549505,"A Dean John et al. Lange's handbook of chemistry. In Universitas Of Tennese Knoxville, Fifthenth Edition, Mc. Graw Hill Inc, New York. Conference, 1999."
2367,tetramethylurea,CN(C)C(=O)N(C)C,298.15,0.003354016,1.396368361,0.145,0.987045265,0.01,21.37817822,10.31167769,18.14224912,20.86804133,12.84151598,29.54866337,"Gregory W Kau man and Peter C Jurs. Prediction of surface tension, viscosity, and thermal conductivity for common organic solvents using quantitative structure- property relationships. Journal of chemical information and computer sciences, 41(2):408-418, 2001."
2368,"N,N-dimethylthioformamide",CN(C)C=S,298.15,0.003354016,1.981527026,0.297,0.920407487,0.06,23.75555446,11.46921817,18.57341831,21.82927734,11.62492306,32.85335644,"Gregory W Kau man and Peter C Jurs. Prediction of surface tension, viscosity, and thermal conductivity for common organic solvents using quantitative structure- property relationships. Journal of chemical information and computer sciences, 41(2):408-418, 2001."
2369,2-dimethylaminoethanol,CN(C)CCO,294.75,0.003392706,3.5839,0.554355883,0.886890297,0.08,21.41317822,14.51171784,15.77820838,21.43763139,11.62545939,29.53043564,"Sunghwan Kim, Paul A Thiessen, Tiejun Cheng, Jian Zhang, Asta Gindulyte, and Evan E Bolton. Pug-view: programmatic access to chemical annotations integrated in pubchem. Journal of cheminformatics, 11(1):1-11, 2019."
2370,"1,1-dimethylhydrazine",CN(C)N,298.15,0.003354016,0.492,-0.308034897,0.82922543,0.2,21.57016832,14.19135572,15.57048199,21.06762425,8.280884126,29.87030693,"Sunghwan Kim, Paul A Thiessen, Tiejun Cheng, Jian Zhang, Asta Gindulyte, and Evan E Bolton. Pug-view: programmatic access to chemical annotations integrated in pubchem. Journal of cheminformatics, 11(1):1-11, 2019."
2371,Hexamethylphosphoramide,CN(C)P(=O)(N(C)C)N(C)C,293.15,0.003411223,3.47,0.540329475,1.011765236,0.07,21.65119802,7.238121037,15.92519471,17.49300652,13.53644221,29.73072277,"A Dean John et al. Lange's handbook of chemistry. In Universitas Of Tennese Knoxville, Fifthenth Edition, Mc. Graw Hill Inc, New York. Conference, 1999."
2372,dimethylaniline,CN(C)c1ccccc1,343.15,0.002914177,0.714,-0.146301788,0.904556004,0.16,22.32159406,6.507833274,16.72843136,17.94991198,10.99855359,30.73730693,"WE Wasburn. International critical tables of numerical data, physics, chemistry and technology. 1st electronic edition. Knovel: Norwich, NY, 2003."
2373,dimethylaniline,CN(C)c1ccccc1,363.15,0.002753683,0.579,-0.237321436,0.885520727,0.27,22.48058416,6.194898959,16.28216602,17.42112871,10.64829799,30.93670297,"WE Wasburn. International critical tables of numerical data, physics, chemistry and technology. 1st electronic edition. Knovel: Norwich, NY, 2003."
2374,dimethylaniline,CN(C)c1ccccc1,371.15,0.002694328,0.537,-0.270025714,0.886272588,0.28,22.46733663,6.189485319,16.27614126,17.41351337,10.64710988,31.02693069,"WE Wasburn. International critical tables of numerical data, physics, chemistry and technology. 1st electronic edition. Knovel: Norwich, NY, 2003."
2375,N-methyldiphenylamine,CN(c1ccccc1)c1ccccc1,282.95,0.003534193,11.0,1.041392685,1.07209276,0.01,21.92779208,6.403766877,19.46335568,20.48997806,17.71410738,28.79159406,"WE Wasburn. International critical tables of numerical data, physics, chemistry and technology. 1st electronic edition. Knovel: Norwich, NY, 2003."
2376,n-Methyl diphenyl amine,CN(c1ccccc1)c1ccccc1,293.15,0.003411223,7.3,0.86332286,1.056783264,0.01,22.02083168,6.192030966,19.10489163,20.08345235,17.29926779,29.94639604,"Dabir S Viswanath, Tushar K Ghosh, Dasika HL Prasad, Nidamarty VK Dutt, Kalipatnapu Y Rani, Dabir S Viswanath, Tushar K Ghosh, Dasika HL Prasad, Nidamarty VK Dutt, and Kalipatnapu Y Rani. Correlations and estimation of pure liquid viscosity.Viscosity of Liquids: Theory, Estimation, Experiment, and Data, pages 135-405, 2007."
2377,N-methyldiphenylamine,CN(c1ccccc1)c1ccccc1,293.25,0.00341006,7.25,0.860338007,1.060833925,0.02,21.99769307,6.217982748,19.1920988,20.17449159,17.38695342,30.00048515,"WE Wasburn. International critical tables of numerical data, physics, chemistry and technology. 1st electronic edition. Knovel: Norwich, NY, 2003."
2378,N-methyldiphenylamine,CN(c1ccccc1)c1ccccc1,303.15,0.003298697,5.15,0.711807229,1.050178763,0.02,22.07752475,6.044669182,18.9327866,19.87455506,17.07615729,30.31640594,"WE Wasburn. International critical tables of numerical data, physics, chemistry and technology. 1st electronic edition. Knovel: Norwich, NY, 2003."
2379,N-methyldiphenylamine,CN(c1ccccc1)c1ccccc1,313.15,0.003193358,3.85,0.58546073,1.044724333,0.02,22.11271287,5.925192425,18.78674837,19.69916356,16.89102961,30.41734653,"WE Wasburn. International critical tables of numerical data, physics, chemistry and technology. 1st electronic edition. Knovel: Norwich, NY, 2003."
2380,N-methyldiphenylamine,CN(c1ccccc1)c1ccccc1,333.15,0.003001651,2.49,0.396199347,1.026450614,0.04,22.2450396,5.661150167,18.34640584,19.20019745,16.39222114,30.57153465,"WE Wasburn. International critical tables of numerical data, physics, chemistry and technology. 1st electronic edition. Knovel: Norwich, NY, 2003."
2381,N-methyldiphenylamine,CN(c1ccccc1)c1ccccc1,353.15,0.002831658,1.74,0.240549248,1.006527037,0.09,22.38538614,5.369761475,17.87630596,18.66565478,15.86258211,30.8700099,"WE Wasburn. International critical tables of numerical data, physics, chemistry and technology. 1st electronic edition. Knovel: Norwich, NY, 2003."
2382,N-methyldiphenylamine,CN(c1ccccc1)c1ccccc1,403.15,0.002480466,0.81,-0.091514981,0.964240163,0.22,22.70776238,4.775699,16.8698557,17.53307851,14.76456795,31.21087129,"WE Wasburn. International critical tables of numerical data, physics, chemistry and technology. 1st electronic edition. Knovel: Norwich, NY, 2003."
2383,dimethylamine,CNC,239.65,0.004172752,0.3208,-0.49376564,0.738062761,0.12,21.64517822,18.71445714,13.32570312,22.97436307,8.182225146,29.98812871,"WE Wasburn. International critical tables of numerical data, physics, chemistry and technology. 1st electronic edition. Knovel: Norwich, NY, 2003."
2384,N-methylacetamide,CNC(C)=O,298.15,0.003354016,3.647539469,0.562,0.978334471,0.02,21.78930693,20.09227597,20.24146843,28.52057128,15.11765255,30.24014851,"Gregory W Kau man and Peter C Jurs. Prediction of surface tension, viscosity, and thermal conductivity for common organic solvents using quantitative structure- property relationships. Journal of chemical information and computer sciences, 41(2):408-418, 2001."
2385,N-methylacetamide,CNC(C)=O,308.15,0.003245173,3.23,0.509202522,0.988769875,0.01,21.71148515,20.15299988,20.40194729,28.67734182,15.14268784,29.98120792,"Sunghwan Kim, Paul A Thiessen, Tiejun Cheng, Jian Zhang, Asta Gindulyte, and Evan E Bolton. Pug-view: programmatic access to chemical annotations integrated in pubchem. Journal of cheminformatics, 11(1):1-11, 2019."
2386,N-methylacetamide,CNC(C)=O,313.15,0.003193358,3.012,0.478854968,0.98000124,0.01,21.7740297,19.94278093,20.22221559,28.40177792,15.00223505,30.17227723,"Sunghwan Kim, Paul A Thiessen, Tiejun Cheng, Jian Zhang, Asta Gindulyte, and Evan E Bolton. Pug-view: programmatic access to chemical annotations integrated in pubchem. Journal of cheminformatics, 11(1):1-11, 2019."
2387,N-Methylacetamide,CNC(C)=O,318.15,0.003143171,2.54,0.404833717,0.966386724,0.03,21.87405941,19.66894987,19.92586795,27.99849902,14.80358803,30.32145545,"A Dean John et al. Lange's handbook of chemistry. In Universitas Of Tennese Knoxville, Fifthenth Edition, Mc. Graw Hill Inc, New York. Conference, 1999."