Index,Name,CANON_SMILES,Temperature (K),Inverse temperature (1/K),Viscosity (cP),log(Viscosity),MD_density,MD_FV,MD_Rg,MD_SP_E,MD_SP_V,MD_SP,MD_HV,MD_RMSD,Reference
725,isobutyl alcohol,CC(C)CO,329.63,0.003033704,1.3571,0.132611851,0.769966784,0.35,22.01050495,15.23922585,14.48221005,21.02355382,10.82469396,30.38789109,"WE Wasburn. International critical tables of numerical data, physics, chemistry and technology. 1st electronic edition. Knovel: Norwich, NY, 2003."
726,isobutyl alcohol,CC(C)CO,329.74,0.003032692,1.3502,0.130398104,0.763883329,0.41,22.07438614,15.15243913,14.36648705,20.88102111,10.76742376,30.46514851,"WE Wasburn. International critical tables of numerical data, physics, chemistry and technology. 1st electronic edition. Knovel: Norwich, NY, 2003."
727,isobutyl alcohol,CC(C)CO,339.1,0.002948983,1.0697,0.029261996,0.769369332,0.43,22.02092079,14.96555259,14.50189271,20.83965095,10.67416915,30.40619802,"WE Wasburn. International critical tables of numerical data, physics, chemistry and technology. 1st electronic edition. Knovel: Norwich, NY, 2003."
728,isobutyl alcohol,CC(C)CO,347.76,0.002875546,0.8748,-0.058091226,0.751585384,0.53,22.18716832,14.46786923,14.14143835,20.23170437,10.33946221,30.68365347,"WE Wasburn. International critical tables of numerical data, physics, chemistry and technology. 1st electronic edition. Knovel: Norwich, NY, 2003."
729,isobutyl alcohol,CC(C)CO,357.1,0.002800336,0.7173,-0.144299169,0.746132875,0.66,22.2490396,14.08865014,14.06214311,19.90616801,10.11825224,30.64337624,"WE Wasburn. International critical tables of numerical data, physics, chemistry and technology. 1st electronic edition. Knovel: Norwich, NY, 2003."
730,isobutyl alcohol,CC(C)CO,367.0,0.002724796,0.5864,-0.231806038,0.726322554,0.77,22.45456436,13.48079508,13.66710055,19.19766754,9.718866707,30.93349505,"WE Wasburn. International critical tables of numerical data, physics, chemistry and technology. 1st electronic edition. Knovel: Norwich, NY, 2003."
731,isobutyl alcohol,CC(C)CO,378.22,0.002643964,0.4753,-0.323032186,0.717230986,0.91,22.54220792,13.03753384,13.48563367,18.75806019,9.442957628,31.10431683,"WE Wasburn. International critical tables of numerical data, physics, chemistry and technology. 1st electronic edition. Knovel: Norwich, NY, 2003."
732,isobutyl formate,CC(C)COC=O,298.15,0.003354016,0.62,-0.207608311,0.888915999,0.11,22.40082178,5.524352687,17.06269345,17.93487405,9.425548915,30.92036634,"Valentin Goussard, Francois Duprat, Jean-Luc Ploix, G erard Dreyfus, Veronique Nardello-Rataj, and Jean-Marie Aubry. A new machine-learning tool for fast estimation of liquid viscosity. application to cosmetic oils. Journal of Chemical Information and Modeling, 60(4):2012-2023, 2020."
733,isobutyl ether,CC(C)COCC(C)C,293.15,0.003411223,0.7491,-0.125460203,0.758965783,0.27,21.94439604,2.416445264,15.02642377,15.21972114,10.0823285,30.23955446,"WE Wasburn. International critical tables of numerical data, physics, chemistry and technology. 1st electronic edition. Knovel: Norwich, NY, 2003."
734,isobuthylbenzene,CC(C)Cc1ccccc1,298.15,0.003354016,0.81,-0.091514981,0.869169148,0.04,22.03658416,3.475188065,16.89946162,17.25330645,11.57930572,30.27817822,"Valentin Goussard, Francois Duprat, Jean-Luc Ploix, G erard Dreyfus, Veronique Nardello-Rataj, and Jean-Marie Aubry. A new machine-learning tool for fast estimation of liquid viscosity. application to cosmetic oils. Journal of Chemical Information and Modeling, 60(4):2012-2023, 2020."
735,isopropyl chloride,CC(C)Cl,273.42,0.003657377,0.4,-0.397940009,0.924646602,0.16,23.41278218,7.182232454,16.25413951,17.77033351,6.954287548,32.38293069,"WE Wasburn. International critical tables of numerical data, physics, chemistry and technology. 1st electronic edition. Knovel: Norwich, NY, 2003."
736,isopropyl chloride,CC(C)Cl,279.83,0.003573598,0.3714,-0.430158101,0.906460632,0.19,23.56288119,7.017724208,15.88419488,17.3654704,6.801054415,32.68426733,"WE Wasburn. International critical tables of numerical data, physics, chemistry and technology. 1st electronic edition. Knovel: Norwich, NY, 2003."
737,isopropyl chloride,CC(C)Cl,284.17,0.00351902,0.354,-0.450996738,0.912833698,0.23,23.52906931,7.039026357,15.98752308,17.46859892,6.839962097,32.52624752,"WE Wasburn. International critical tables of numerical data, physics, chemistry and technology. 1st electronic edition. Knovel: Norwich, NY, 2003."
738,2-Chloropropane,CC(C)Cl,288.15,0.003470415,0.335,-0.474955193,0.893948404,0.23,23.67710891,6.894000937,15.611161,17.06572328,6.688286247,32.80878218,"A Dean John et al. Lange's handbook of chemistry. In Universitas Of Tennese Knoxville, Fifthenth Edition, Mc. Graw Hill Inc, New York. Conference, 1999."
739,isopropyl chloride,CC(C)Cl,289.62,0.0034528,0.3341,-0.476123524,0.899897602,0.29,23.62865347,6.92508314,15.71745827,17.17554203,6.729206825,32.65975248,"WE Wasburn. International critical tables of numerical data, physics, chemistry and technology. 1st electronic edition. Knovel: Norwich, NY, 2003."
740,isopropyl chloride,CC(C)Cl,301.37,0.00331818,0.2962,-0.528414946,0.879466256,0.39,23.79862376,6.735400614,15.28611791,16.70433062,6.554771069,33.00472277,"WE Wasburn. International critical tables of numerical data, physics, chemistry and technology. 1st electronic edition. Knovel: Norwich, NY, 2003."
741,2-Chloropropane,CC(C)Cl,303.15,0.003298697,0.299,-0.524328812,0.878352432,0.45,23.81234653,6.727598584,15.25426507,16.67205517,6.542830697,32.94589109,"A Dean John et al. Lange's handbook of chemistry. In Universitas Of Tennese Knoxville, Fifthenth Edition, Mc. Graw Hill Inc, New York. Conference, 1999."
742,isopropyl chloride,CC(C)Cl,306.17,0.003266159,0.2829,-0.548367053,0.88189598,0.35,23.77954455,6.728330683,15.31042133,16.7237363,6.561709893,32.89382178,"WE Wasburn. International critical tables of numerical data, physics, chemistry and technology. 1st electronic edition. Knovel: Norwich, NY, 2003."
743,isopropyl iodide,CC(C)I,282.33,0.003541954,0.782,-0.106793247,1.872061599,0.07,23.94229703,6.156711181,18.25360914,19.26401878,8.614998746,33.1430099,"WE Wasburn. International critical tables of numerical data, physics, chemistry and technology. 1st electronic edition. Knovel: Norwich, NY, 2003."
744,2-Iodopropane,CC(C)I,288.15,0.003470415,0.732,-0.135488919,1.854132135,0.05,24.01906931,6.078247782,18.04584983,19.04207339,8.518148248,33.28654455,"A Dean John et al. Lange's handbook of chemistry. In Universitas Of Tennese Knoxville, Fifthenth Edition, Mc. Graw Hill Inc, New York. Conference, 1999."
745,isopropyl iodide,CC(C)I,289.07,0.00345937,0.722,-0.141462802,1.851468381,0.08,24.02982178,6.083195462,18.00807478,19.00785399,8.50284144,33.2710495,"WE Wasburn. International critical tables of numerical data, physics, chemistry and technology. 1st electronic edition. Knovel: Norwich, NY, 2003."
746,n-propyl iodide,CC(C)I,293.96,0.003401823,0.73,-0.13667714,1.838598368,0.1,24.08846535,6.017868158,17.85549518,18.84239596,8.429670702,33.28620792,"WE Wasburn. International critical tables of numerical data, physics, chemistry and technology. 1st electronic edition. Knovel: Norwich, NY, 2003."
747,isopropyl iodide,CC(C)I,296.58,0.003371772,0.664,-0.177831921,1.843456365,0.05,24.06078218,6.013364162,17.89595551,18.87933551,8.44490816,33.2750099,"WE Wasburn. International critical tables of numerical data, physics, chemistry and technology. 1st electronic edition. Knovel: Norwich, NY, 2003."
748,2-Iodopropane,CC(C)I,303.15,0.003298697,0.62,-0.207608311,1.81494356,0.08,24.18436634,5.915342451,17.572715,18.54169706,8.298538626,33.43479208,"A Dean John et al. Lange's handbook of chemistry. In Universitas Of Tennese Knoxville, Fifthenth Edition, Mc. Graw Hill Inc, New York. Conference, 1999."
749,isopropyl iodide,CC(C)I,305.84,0.003269683,0.601,-0.221125528,1.82298196,0.11,24.1520198,5.935005168,17.64522465,18.61671571,8.332072808,33.42227723,"WE Wasburn. International critical tables of numerical data, physics, chemistry and technology. 1st electronic edition. Knovel: Norwich, NY, 2003."
750,n-propyl iodide,CC(C)I,311.98,0.003205334,0.605,-0.218244625,1.812390149,0.11,24.20079208,5.867444866,17.5095377,18.4665584,8.264597966,33.55047525,"WE Wasburn. International critical tables of numerical data, physics, chemistry and technology. 1st electronic edition. Knovel: Norwich, NY, 2003."
751,isopropyl iodide,CC(C)I,313.82,0.00318654,0.555,-0.255707017,1.781252829,0.2,24.3409703,5.776176621,17.1781323,18.12334835,8.115446766,33.71239604,"WE Wasburn. International critical tables of numerical data, physics, chemistry and technology. 1st electronic edition. Knovel: Norwich, NY, 2003."
752,n-propyl iodide,CC(C)I,319.32,0.003131655,0.564,-0.248720896,1.799061019,0.15,24.25455446,5.826140619,17.34544966,18.29786498,8.195768291,33.54525743,"WE Wasburn. International critical tables of numerical data, physics, chemistry and technology. 1st electronic edition. Knovel: Norwich, NY, 2003."
753,isopropyl iodide,CC(C)I,322.58,0.003100006,0.509,-0.293282218,1.791956159,0.19,24.29433663,5.782714294,17.25845725,18.20157497,8.152532847,33.58816832,"WE Wasburn. International critical tables of numerical data, physics, chemistry and technology. 1st electronic edition. Knovel: Norwich, NY, 2003."
754,n-propyl iodide,CC(C)I,328.74,0.003041918,0.516,-0.287350298,1.767928852,0.2,24.40245545,5.704086759,16.97641163,17.90917121,8.024203288,33.81257426,"WE Wasburn. International critical tables of numerical data, physics, chemistry and technology. 1st electronic edition. Knovel: Norwich, NY, 2003."
755,isopropyl iodide,CC(C)I,330.16,0.003028835,0.475,-0.32330639,1.762441838,0.2,24.42136634,5.67526558,16.92046179,17.84697399,7.998706425,33.74365347,"WE Wasburn. International critical tables of numerical data, physics, chemistry and technology. 1st electronic edition. Knovel: Norwich, NY, 2003."
756,isopropyl iodide,CC(C)I,338.59,0.002953424,0.44,-0.356547324,1.749062125,0.29,24.48568317,5.593593336,16.75464842,17.66381862,7.920540091,33.93076238,"WE Wasburn. International critical tables of numerical data, physics, chemistry and technology. 1st electronic edition. Knovel: Norwich, NY, 2003."
757,isopropyl iodide,CC(C)I,344.64,0.002901578,0.418,-0.378823718,1.737420538,0.29,24.54892079,5.553533662,16.61946004,17.52290543,7.865194126,33.93948515,"WE Wasburn. International critical tables of numerical data, physics, chemistry and technology. 1st electronic edition. Knovel: Norwich, NY, 2003."
758,isopropyl iodide,CC(C)I,353.6,0.002828054,0.388,-0.411168274,1.709354122,0.41,24.66570297,5.439640418,16.2950912,17.1791705,7.71737598,34.17936634,"WE Wasburn. International critical tables of numerical data, physics, chemistry and technology. 1st electronic edition. Knovel: Norwich, NY, 2003."
759,n-propyl iodide,CC(C)I,357.03,0.002800885,0.406,-0.391473966,1.693274141,0.37,24.74909901,5.378995403,16.11267067,16.9869308,7.633206007,34.18586139,"WE Wasburn. International critical tables of numerical data, physics, chemistry and technology. 1st electronic edition. Knovel: Norwich, NY, 2003."
760,isopropyl iodide,CC(C)I,361.87,0.002763423,0.361,-0.442492798,1.673642047,0.69,24.85517822,5.325766768,15.8915526,16.76035671,7.538425428,34.35030693,"WE Wasburn. International critical tables of numerical data, physics, chemistry and technology. 1st electronic edition. Knovel: Norwich, NY, 2003."
761,n-propyl iodide,CC(C)I,372.04,0.002687883,0.362,-0.44129143,1.660673361,0.5,24.91783168,5.25523106,15.73437722,16.58893188,7.472015635,34.50985149,"WE Wasburn. International critical tables of numerical data, physics, chemistry and technology. 1st electronic edition. Knovel: Norwich, NY, 2003."
762,isopropylamine,CC(C)N,291.15,0.003434656,0.381065823,-0.419,0.755487403,0.16,21.54479208,14.21113675,15.10950605,20.74315561,8.62510119,29.77747525,"Marina Cocchi, Pier Giuseppe De Benedetti, Renato Seeber, Lorenzo Tassi, and Alessandro Ulrici. Development of quantitative structure- property relationships using calculated descriptors for the prediction of the physicochemical properties of a series of organic solvents. Journal of chemical information and computer sciences, 39(6):1190-1203, 1999."
763,isopropyl alcohol,CC(C)O,273.51,0.003656173,4.5018,0.653386197,0.825724346,0.12,21.59975248,19.17787541,15.63683791,24.74509212,11.19470521,29.89660396,"WE Wasburn. International critical tables of numerical data, physics, chemistry and technology. 1st electronic edition. Knovel: Norwich, NY, 2003."
764,isopropyl alcohol,CC(C)O,280.36,0.003566843,3.5568,0.551059445,0.823199645,0.12,21.62290099,19.02006138,15.59282465,24.59496231,11.11173925,29.90527723,"WE Wasburn. International critical tables of numerical data, physics, chemistry and technology. 1st electronic edition. Knovel: Norwich, NY, 2003."
765,isopropyl alcohol,CC(C)O,283.15,0.003531697,3.319,0.521007252,0.816138493,0.16,21.67985149,18.83321367,15.44483867,24.35666559,11.00329616,29.96455446,"WE Wasburn. International critical tables of numerical data, physics, chemistry and technology. 1st electronic edition. Knovel: Norwich, NY, 2003."
766,isopropyl alcohol,CC(C)O,287.56,0.003477535,2.8157,0.449586381,0.813934262,0.14,21.70363366,18.70358051,15.4151562,24.237761,10.93838146,30.04346535,"WE Wasburn. International critical tables of numerical data, physics, chemistry and technology. 1st electronic edition. Knovel: Norwich, NY, 2003."
767,isopropyl alcohol,CC(C)O,295.37,0.003385584,2.2204,0.346431219,0.809799307,0.16,21.73371287,18.47285947,15.33915321,24.01151654,10.8132306,30.1070198,"WE Wasburn. International critical tables of numerical data, physics, chemistry and technology. 1st electronic edition. Knovel: Norwich, NY, 2003."
768,isopropyl alcohol,CC(C)O,303.7,0.003292723,1.7275,0.237418056,0.797432,0.21,21.84558416,18.0568179,15.10189711,23.54013228,10.5846496,30.1579802,"WE Wasburn. International critical tables of numerical data, physics, chemistry and technology. 1st electronic edition. Knovel: Norwich, NY, 2003."
769,isopropyl alcohol,CC(C)O,311.07,0.003214711,1.4053,0.147769046,0.793932507,0.2,21.88576238,17.84536872,15.03947646,23.33795443,10.47183117,30.23221782,"WE Wasburn. International critical tables of numerical data, physics, chemistry and technology. 1st electronic edition. Knovel: Norwich, NY, 2003."
770,isopropyl alcohol,CC(C)O,313.15,0.003193358,1.375,0.138302698,0.786934801,0.2,21.9519604,17.6645167,14.91734528,23.12099879,10.37960584,30.34971287,"WE Wasburn. International critical tables of numerical data, physics, chemistry and technology. 1st electronic edition. Knovel: Norwich, NY, 2003."
771,isopropyl alcohol,CC(C)O,318.3,0.00314169,1.1604,0.06460772,0.788770946,0.21,21.92509901,17.55337922,14.95343897,23.0595682,10.31548479,30.34131683,"WE Wasburn. International critical tables of numerical data, physics, chemistry and technology. 1st electronic edition. Knovel: Norwich, NY, 2003."
772,isopropyl alcohol,CC(C)O,325.12,0.003075787,0.977,-0.010105436,0.775831376,0.35,22.05392079,17.17624834,14.71050407,22.61526027,10.11487217,30.56648515,"WE Wasburn. International critical tables of numerical data, physics, chemistry and technology. 1st electronic edition. Knovel: Norwich, NY, 2003."
773,isopropyl alcohol,CC(C)O,332.54,0.003007157,0.8157,-0.088469538,0.757796608,0.41,22.22520792,16.70359841,14.33177231,22.00974235,9.842784403,30.76812871,"WE Wasburn. International critical tables of numerical data, physics, chemistry and technology. 1st electronic edition. Knovel: Norwich, NY, 2003."
774,isopropyl alcohol,CC(C)O,339.75,0.002943341,0.6923,-0.159705668,0.752669798,0.45,22.26927723,16.35974696,14.27494436,21.71268253,9.671817632,30.8059505,"WE Wasburn. International critical tables of numerical data, physics, chemistry and technology. 1st electronic edition. Knovel: Norwich, NY, 2003."
775,isopropyl alcohol,CC(C)O,345.17,0.002897123,0.6141,-0.211760903,0.756880801,0.48,22.23280198,16.29766907,14.36053762,21.72228646,9.640435077,30.70870297,"WE Wasburn. International critical tables of numerical data, physics, chemistry and technology. 1st electronic edition. Knovel: Norwich, NY, 2003."
776,isopropyl alcohol,CC(C)O,351.24,0.002847056,0.5407,-0.26704363,0.742891032,0.66,22.37660396,15.88377974,14.10237978,21.24134101,9.421657783,30.90551485,"WE Wasburn. International critical tables of numerical data, physics, chemistry and technology. 1st electronic edition. Knovel: Norwich, NY, 2003."
777,Isopropyl chloroformate,CC(C)OC(=O)Cl,293.15,0.003411223,0.65,-0.187086643,1.124541755,0.06,23.47344554,5.941649635,18.96949481,19.87838709,10.87481881,32.46610891,"Sunghwan Kim, Paul A Thiessen, Tiejun Cheng, Jian Zhang, Asta Gindulyte, and Evan E Bolton. Pug-view: programmatic access to chemical annotations integrated in pubchem. Journal of cheminformatics, 11(1):1-11, 2019."
778,Isopropyl ether,CC(C)OC(C)C,266.4833333,0.00375258,0.273,-0.563837353,0.779351615,0.16,21.80445545,3.585481035,15.75283373,16.15590173,8.70835588,30.09181188,"Sunghwan Kim, Paul A Thiessen, Tiejun Cheng, Jian Zhang, Asta Gindulyte, and Evan E Bolton. Pug-view: programmatic access to chemical annotations integrated in pubchem. Journal of cheminformatics, 11(1):1-11, 2019."
779,Tripropylene glycol isopropyl ether,CC(C)OC(C)COC(C)COC(C)CO,298.15,0.003354016,7.7,0.886490725,0.950521824,0.02,21.37658416,10.08938609,16.23284,19.11342468,22.11870014,26.77388119,"A Dean John et al. Lange's handbook of chemistry. In Universitas Of Tennese Knoxville, Fifthenth Edition, Mc. Graw Hill Inc, New York. Conference, 1999."
780,isopropyl formate,CC(C)OC=O,293.15,0.003411223,0.5649,-0.248028425,0.905853866,0.09,22.60391089,6.249916725,17.58446226,18.66226852,8.67882377,31.21437624,"WE Wasburn. International critical tables of numerical data, physics, chemistry and technology. 1st electronic edition. Knovel: Norwich, NY, 2003."
781,Isopropyl formate,CC(C)OC=O,298.15,0.003354016,0.34,-0.468521083,0.8946674,0.13,22.69292079,6.136692534,17.32477449,18.37967608,8.543614061,31.38142574,"Valentin Goussard, Francois Duprat, Jean-Luc Ploix, G erard Dreyfus, Veronique Nardello-Rataj, and Jean-Marie Aubry. A new machine-learning tool for fast estimation of liquid viscosity. application to cosmetic oils. Journal of Chemical Information and Modeling, 60(4):2012-2023, 2020."
782,menthol,CC(C)[C@@H]1CC[C@@H](C)C[C@H]1O,308.05,0.003246226,25.05,1.39880773,0.888136588,0.12,21.15867327,11.1283902,16.14082848,19.60587637,16.77726502,27.52760396,"WE Wasburn. International critical tables of numerical data, physics, chemistry and technology. 1st electronic edition. Knovel: Norwich, NY, 2003."
783,menthol,CC(C)[C@@H]1CC[C@@H](C)C[C@H]1O,310.95,0.003215951,20.36,1.308777774,0.881584691,0.14,21.20386139,10.99709585,16.00526428,19.41984425,16.59553954,28.29740594,"WE Wasburn. International critical tables of numerical data, physics, chemistry and technology. 1st electronic edition. Knovel: Norwich, NY, 2003."
784,menthol,CC(C)[C@@H]1CC[C@@H](C)C[C@H]1O,316.55,0.003159059,13.68,1.136086097,0.883781368,0.14,21.1769901,10.81962431,16.05946753,19.36504162,16.4772435,28.51312871,"WE Wasburn. International critical tables of numerical data, physics, chemistry and technology. 1st electronic edition. Knovel: Norwich, NY, 2003."
785,menthol,CC(C)[C@@H]1CC[C@@H](C)C[C@H]1O,328.75,0.003041825,6.28,0.797959644,0.872054989,0.16,21.27481188,10.39057979,15.77536926,18.89082128,15.93756527,29.23207921,"WE Wasburn. International critical tables of numerical data, physics, chemistry and technology. 1st electronic edition. Knovel: Norwich, NY, 2003."
786,menthol,CC(C)[C@@H]1CC[C@@H](C)C[C@H]1O,347.75,0.002875629,2.47,0.392696953,0.848005653,0.25,21.47634653,9.552674024,15.27556767,18.01746136,14.98912649,29.29366337,"WE Wasburn. International critical tables of numerical data, physics, chemistry and technology. 1st electronic edition. Knovel: Norwich, NY, 2003."