Index,Name,CANON_SMILES,Temperature (K),Inverse temperature (1/K),Viscosity (cP),log(Viscosity),MD_density,MD_FV,MD_Rg,MD_SP_E,MD_SP_V,MD_SP,MD_HV,MD_RMSD,Reference
2706,m-xylene,Cc1cccc(C)c1,296.51,0.003372568,0.595,-0.225483034,0.868125828,0.11,22.4339604,4.897641791,17.26551359,17.94697801,10.00379931,30.93330693,"WE Wasburn. International critical tables of numerical data, physics, chemistry and technology. 1st electronic edition. Knovel: Norwich, NY, 2003."
2707,m-xylene,Cc1cccc(C)c1,309.12,0.00323499,0.513,-0.289882635,0.855534878,0.12,22.54946535,4.75729349,16.94090248,17.59638591,9.797820692,31.00133663,"WE Wasburn. International critical tables of numerical data, physics, chemistry and technology. 1st electronic edition. Knovel: Norwich, NY, 2003."
2708,m-xylene,Cc1cccc(C)c1,321.86,0.003106941,0.45,-0.346787486,0.841909413,0.22,22.66660396,4.60107759,16.60304307,17.2289988,9.586156566,31.2830099,"WE Wasburn. International critical tables of numerical data, physics, chemistry and technology. 1st electronic edition. Knovel: Norwich, NY, 2003."
2709,m-xylene,Cc1cccc(C)c1,333.09,0.003002192,0.404,-0.393618635,0.834910049,0.29,22.72894059,4.495518412,16.41217458,17.01694558,9.4627724,31.36482178,"WE Wasburn. International critical tables of numerical data, physics, chemistry and technology. 1st electronic edition. Knovel: Norwich, NY, 2003."
2710,m-xylene,Cc1cccc(C)c1,333.42,0.00299922,0.403,-0.394694954,0.836467845,0.25,22.71057426,4.479212214,16.45238013,17.05141732,9.482673628,31.35570297,"WE Wasburn. International critical tables of numerical data, physics, chemistry and technology. 1st electronic edition. Knovel: Norwich, NY, 2003."
2711,m-xylene,Cc1cccc(C)c1,344.35,0.002904022,0.366,-0.436518915,0.82946073,0.26,22.78269307,4.413292617,16.25733483,16.84600114,9.365883229,31.42324752,"WE Wasburn. International critical tables of numerical data, physics, chemistry and technology. 1st electronic edition. Knovel: Norwich, NY, 2003."
2712,m-xylene,Cc1cccc(C)c1,359.5,0.002781641,0.322,-0.492144128,0.803784806,0.4,23.02924752,4.156030742,15.65694556,16.19948151,8.998870669,31.75333663,"WE Wasburn. International critical tables of numerical data, physics, chemistry and technology. 1st electronic edition. Knovel: Norwich, NY, 2003."
2713,m-xylene,Cc1cccc(C)c1,371.83,0.002689401,0.293,-0.53313238,0.788009212,0.62,23.1789505,4.004483056,15.28568639,15.80182813,8.779465958,31.99894059,"WE Wasburn. International critical tables of numerical data, physics, chemistry and technology. 1st electronic edition. Knovel: Norwich, NY, 2003."
2714,m-xylene,Cc1cccc(C)c1,382.9,0.002611648,0.269,-0.57024772,0.776098772,0.71,23.29047525,3.894934342,14.99721185,15.4950493,8.610929795,32.16939604,"WE Wasburn. International critical tables of numerical data, physics, chemistry and technology. 1st electronic edition. Knovel: Norwich, NY, 2003."
2715,m-xylene,Cc1cccc(C)c1,396.68,0.002520924,0.244,-0.612610174,0.769032532,0.86,23.36334653,3.819141932,14.80218748,15.28727899,8.499411283,32.20313861,"WE Wasburn. International critical tables of numerical data, physics, chemistry and technology. 1st electronic edition. Knovel: Norwich, NY, 2003."
2716,"1,2,3-trimethylbenzene ",Cc1cccc(C)c1C,298.15,0.003354016,0.86,-0.065501549,0.885960514,0.08,22.05752475,4.802978729,17.4471208,18.0963432,11.21092734,30.26556436,"Valentin Goussard, Francois Duprat, Jean-Luc Ploix, G erard Dreyfus, Veronique Nardello-Rataj, and Jean-Marie Aubry. A new machine-learning tool for fast estimation of liquid viscosity. application to cosmetic oils. Journal of Chemical Information and Modeling, 60(4):2012-2023, 2020."
2717,"2,6-xylidine",Cc1cccc(C)c1N,323.15,0.003094538,1.7,0.230448921,0.944358423,0.07,22.00619802,7.614149595,17.63020187,19.20439427,11.95347284,30.31306931,"Sunghwan Kim, Paul A Thiessen, Tiejun Cheng, Jian Zhang, Asta Gindulyte, and Evan E Bolton. Pug-view: programmatic access to chemical annotations integrated in pubchem. Journal of cheminformatics, 11(1):1-11, 2019."
2718,m-Fluorotoluene,Cc1cccc(F)c1,293.15,0.003411223,0.608,-0.216096421,1.00393496,0.08,22.99729703,6.621083009,17.07871863,18.3173967,9.379669022,31.73859406,"A Dean John et al. Lange's handbook of chemistry. In Universitas Of Tennese Knoxville, Fifthenth Edition, Mc. Graw Hill Inc, New York. Conference, 1999."
2719,m-Fluorotoluene,Cc1cccc(F)c1,303.15,0.003298697,0.534,-0.272458743,0.995555883,0.1,23.05750495,6.490705575,16.89144789,18.09571901,9.260148415,31.88960396,"A Dean John et al. Lange's handbook of chemistry. In Universitas Of Tennese Knoxville, Fifthenth Edition, Mc. Graw Hill Inc, New York. Conference, 1999."
2720,m-Toluidine,Cc1cccc(N)c1,288.15,0.003470415,4.418,0.645225712,1.013988332,0.01,21.78137624,11.85855366,18.92305579,22.3320418,13.16900847,30.05647525,"A Dean John et al. Lange's handbook of chemistry. In Universitas Of Tennese Knoxville, Fifthenth Edition, Mc. Graw Hill Inc, New York. Conference, 1999."
2721,3-Amino toluene,Cc1cccc(N)c1,293.15,0.003411223,3.31,0.519827994,1.007107463,0.03,21.82991089,11.66827903,18.77317349,22.10415987,13.00750929,30.12629703,"Dabir S Viswanath, Tushar K Ghosh, Dasika HL Prasad, Nidamarty VK Dutt, Kalipatnapu Y Rani, Dabir S Viswanath, Tushar K Ghosh, Dasika HL Prasad, Nidamarty VK Dutt, and Kalipatnapu Y Rani. Correlations and estimation of pure liquid viscosity.Viscosity of Liquids: Theory, Estimation, Experiment, and Data, pages 135-405, 2007."
2722,m-Toluidine,Cc1cccc(N)c1,303.15,0.003298697,2.741,0.437909036,0.999238831,0.03,21.88346535,11.41676994,18.59489681,21.82036667,12.80573516,30.23481188,"A Dean John et al. Lange's handbook of chemistry. In Universitas Of Tennese Knoxville, Fifthenth Edition, Mc. Graw Hill Inc, New York. Conference, 1999."
2723,m-toluidine,Cc1cccc(N)c1,328.15,0.003047387,1.51,0.178976947,0.971126025,0.11,22.09621782,10.60101526,17.99349133,20.88450008,12.15472093,30.51691089,"WE Wasburn. International critical tables of numerical data, physics, chemistry and technology. 1st electronic edition. Knovel: Norwich, NY, 2003."
2724,m-toluidine,Cc1cccc(N)c1,403.15,0.002480466,0.5,-0.301029996,0.898934025,0.31,22.67235644,8.794913792,16.38165017,18.59370608,10.65096411,31.28751485,"WE Wasburn. International critical tables of numerical data, physics, chemistry and technology. 1st electronic edition. Knovel: Norwich, NY, 2003."
2725,m-cresol,Cc1cccc(O)c1,288.1,0.003471017,24.67,1.392169149,1.057328029,0.01,21.99005941,18.20076376,18.31952009,25.82412629,16.8743259,26.42178218,"Diego Alonso Saldana, Laurie Starck, Pascal Mougin, Bernard Rousseau, Nicolas Ferrando, and Benoit Creton. Prediction of density and viscosity of biofuel compounds using machine learning methods. Energy & fuels, 26(4):2416-2426, 2012."
2726,m-cresol,Cc1cccc(O)c1,293.1,0.003411805,16.4,1.214843848,1.056509194,0.02,21.98151485,18.00253176,18.29255353,25.66560048,16.69724288,26.47250495,"Diego Alonso Saldana, Laurie Starck, Pascal Mougin, Bernard Rousseau, Nicolas Ferrando, and Benoit Creton. Prediction of density and viscosity of biofuel compounds using machine learning methods. Energy & fuels, 26(4):2416-2426, 2012."
2727,m-cresol,Cc1cccc(O)c1,298.1,0.003354579,13.18,1.11991541,1.049631354,0.03,22.02768317,17.83790927,18.1822727,25.47161415,16.56847613,27.41759406,"Diego Alonso Saldana, Laurie Starck, Pascal Mougin, Bernard Rousseau, Nicolas Ferrando, and Benoit Creton. Prediction of density and viscosity of biofuel compounds using machine learning methods. Energy & fuels, 26(4):2416-2426, 2012."
2728,m-cresol,Cc1cccc(O)c1,303.1,0.003299241,9.64,0.984077034,1.042927685,0.01,22.07740594,17.65035911,18.05824169,25.25173172,16.40471953,28.28883168,"Diego Alonso Saldana, Laurie Starck, Pascal Mougin, Bernard Rousseau, Nicolas Ferrando, and Benoit Creton. Prediction of density and viscosity of biofuel compounds using machine learning methods. Energy & fuels, 26(4):2416-2426, 2012."
2729,m-cresol,Cc1cccc(O)c1,303.15,0.003298697,9.47,0.976349979,1.048538362,0.01,22.03167327,17.73107049,18.15841095,25.37977135,16.48005957,27.7729505,"WE Wasburn. International critical tables of numerical data, physics, chemistry and technology. 1st electronic edition. Knovel: Norwich, NY, 2003."
2730,m-cresol,Cc1cccc(O)c1,313.1,0.003193868,6.11,0.78604121,1.036747988,0.05,22.11994059,17.4248997,17.93760692,25.00810355,16.21352772,29.07709901,"Diego Alonso Saldana, Laurie Starck, Pascal Mougin, Bernard Rousseau, Nicolas Ferrando, and Benoit Creton. Prediction of density and viscosity of biofuel compounds using machine learning methods. Energy & fuels, 26(4):2416-2426, 2012."
2731,m-cresol,Cc1cccc(O)c1,313.15,0.003193358,5.92,0.772321707,1.03987062,0.02,22.1030099,17.45583779,18.00204221,25.07586436,16.2512002,28.879,"WE Wasburn. International critical tables of numerical data, physics, chemistry and technology. 1st electronic edition. Knovel: Norwich, NY, 2003."
2732,m-cresol,Cc1cccc(O)c1,323.1,0.003095017,4.2,0.62324929,1.030444366,0.05,22.16744554,17.06055483,17.84472947,24.68831547,15.930179,30.00719802,"Diego Alonso Saldana, Laurie Starck, Pascal Mougin, Bernard Rousseau, Nicolas Ferrando, and Benoit Creton. Prediction of density and viscosity of biofuel compounds using machine learning methods. Energy & fuels, 26(4):2416-2426, 2012."
2733,m-cresol,Cc1cccc(O)c1,333.1,0.003002101,2.99,0.475671188,1.018962769,0.04,22.24583168,16.74226636,17.635272,24.3171626,15.66100371,30.66878218,"Diego Alonso Saldana, Laurie Starck, Pascal Mougin, Bernard Rousseau, Nicolas Ferrando, and Benoit Creton. Prediction of density and viscosity of biofuel compounds using machine learning methods. Energy & fuels, 26(4):2416-2426, 2012."
2734,m-cresol,Cc1cccc(O)c1,333.15,0.003001651,2.99,0.475671188,1.018410302,0.05,22.2509901,16.67143417,17.63902576,24.27116922,15.6125524,30.71577228,"WE Wasburn. International critical tables of numerical data, physics, chemistry and technology. 1st electronic edition. Knovel: Norwich, NY, 2003."
2735,m-cresol,Cc1cccc(O)c1,348.1,0.002872738,2.01,0.303196057,0.999305104,0.06,22.39184158,16.09265236,17.30436144,23.63117727,15.13516316,30.90937624,"Diego Alonso Saldana, Laurie Starck, Pascal Mougin, Bernard Rousseau, Nicolas Ferrando, and Benoit Creton. Prediction of density and viscosity of biofuel compounds using machine learning methods. Energy & fuels, 26(4):2416-2426, 2012."
2736,m-cresol,Cc1cccc(O)c1,353.1,0.002832059,1.8,0.255272505,1.002447672,0.06,22.37454455,16.03488273,17.36319632,23.63516896,15.10468196,31.00052475,"Diego Alonso Saldana, Laurie Starck, Pascal Mougin, Bernard Rousseau, Nicolas Ferrando, and Benoit Creton. Prediction of density and viscosity of biofuel compounds using machine learning methods. Energy & fuels, 26(4):2416-2426, 2012."
2737,m-cresol,Cc1cccc(O)c1,353.15,0.002831658,1.8,0.255272505,0.993193222,0.14,22.44517822,15.93158883,17.17791656,23.42889258,14.98631897,30.96729703,"WE Wasburn. International critical tables of numerical data, physics, chemistry and technology. 1st electronic edition. Knovel: Norwich, NY, 2003."
2738,m-cresol,Cc1cccc(O)c1,383.1,0.002610285,1.02,0.008600172,0.97965982,0.12,22.53371287,15.06743031,16.96024938,22.68696523,14.3405587,31.0909604,"Diego Alonso Saldana, Laurie Starck, Pascal Mougin, Bernard Rousseau, Nicolas Ferrando, and Benoit Creton. Prediction of density and viscosity of biofuel compounds using machine learning methods. Energy & fuels, 26(4):2416-2426, 2012."
2739,m-cresol,Cc1cccc(O)c1,383.15,0.002609944,1.02,0.008600172,0.9731739,0.19,22.58943564,14.98598015,16.8417086,22.54439513,14.25989997,31.12721782,"WE Wasburn. International critical tables of numerical data, physics, chemistry and technology. 1st electronic edition. Knovel: Norwich, NY, 2003."
2740,m-cresol,Cc1cccc(O)c1,396.6,0.002521432,0.82,-0.086186148,0.964690524,0.15,22.65653465,14.60807413,16.68505242,22.17682083,13.964891,31.2630297,"Diego Alonso Saldana, Laurie Starck, Pascal Mougin, Bernard Rousseau, Nicolas Ferrando, and Benoit Creton. Prediction of density and viscosity of biofuel compounds using machine learning methods. Energy & fuels, 26(4):2416-2426, 2012."
2741,m-cresol,Cc1cccc(O)c1,404.1,0.002474635,0.69,-0.161150909,0.943415783,0.27,22.8229604,14.12923808,16.30940802,21.57907344,13.5604261,31.53157426,"Diego Alonso Saldana, Laurie Starck, Pascal Mougin, Bernard Rousseau, Nicolas Ferrando, and Benoit Creton. Prediction of density and viscosity of biofuel compounds using machine learning methods. Energy & fuels, 26(4):2416-2426, 2012."
2742,m-Nitrotoluene,Cc1cccc([N+](=O)[O-])c1,313.15,0.003193358,1.6,0.204119983,1.13362413,0.01,22.77854455,9.768681608,19.88104776,22.15148613,14.80965963,31.41892079,"A Dean John et al. Lange's handbook of chemistry. In Universitas Of Tennese Knoxville, Fifthenth Edition, Mc. Graw Hill Inc, New York. Conference, 1999."
2743,toluene,Cc1ccccc1,273.41,0.003657511,0.7655,-0.116054805,0.903938414,0.05,22.43188119,5.713162929,18.08518647,18.96631386,9.307018333,31.00137624,"WE Wasburn. International critical tables of numerical data, physics, chemistry and technology. 1st electronic edition. Knovel: Norwich, NY, 2003."
2744,toluene,Cc1ccccc1,283.03,0.003533194,0.6683,-0.175028539,0.890863031,0.05,22.54638614,5.551627348,17.76120621,18.60876707,9.122640138,31.16984158,"WE Wasburn. International critical tables of numerical data, physics, chemistry and technology. 1st electronic edition. Knovel: Norwich, NY, 2003."
2745,Toluene,Cc1ccccc1,288.15,0.003470415,0.623,-0.205511953,0.88532834,0.04,22.59360396,5.475916289,17.61654438,18.44818738,9.038327173,31.34509901,"A Dean John et al. Lange's handbook of chemistry. In Universitas Of Tennese Knoxville, Fifthenth Edition, Mc. Graw Hill Inc, New York. Conference, 1999."
2746,toluene,Cc1ccccc1,292.62,0.003417401,0.59,-0.229147988,0.878221577,0.1,22.65028713,5.392499668,17.4489244,18.26333659,8.945539396,31.26905941,"WE Wasburn. International critical tables of numerical data, physics, chemistry and technology. 1st electronic edition. Knovel: Norwich, NY, 2003."
2747,toluene,Cc1ccccc1,293.75,0.003404255,0.583,-0.234331445,0.879850074,0.12,22.64455446,5.383747206,17.48173538,18.29214604,8.958669508,31.29718812,"WE Wasburn. International critical tables of numerical data, physics, chemistry and technology. 1st electronic edition. Knovel: Norwich, NY, 2003."
2748,Toluene,Cc1ccccc1,303.15,0.003298697,0.523,-0.281498311,0.866278205,0.1,22.76251485,5.226391405,17.14641842,17.92545408,8.770949571,31.37270297,"A Dean John et al. Lange's handbook of chemistry. In Universitas Of Tennese Knoxville, Fifthenth Edition, Mc. Graw Hill Inc, New York. Conference, 1999."
2749,toluene,Cc1ccccc1,303.4,0.003295979,0.5184,-0.285335007,0.870708526,0.07,22.71086139,5.276978228,17.24628968,18.03577154,8.830211587,31.35062376,"WE Wasburn. International critical tables of numerical data, physics, chemistry and technology. 1st electronic edition. Knovel: Norwich, NY, 2003."
2750,toluene,Cc1ccccc1,313.01,0.003194786,0.4667,-0.330962199,0.865807294,0.11,22.76505941,5.166768798,17.11628311,17.87929405,8.752941112,31.48144554,"WE Wasburn. International critical tables of numerical data, physics, chemistry and technology. 1st electronic edition. Knovel: Norwich, NY, 2003."
2751,toluene,Cc1ccccc1,322.58,0.003100006,0.4219,-0.374790475,0.850426663,0.19,22.8980099,5.00395043,16.74198397,17.47404216,8.548023109,31.63380198,"WE Wasburn. International critical tables of numerical data, physics, chemistry and technology. 1st electronic edition. Knovel: Norwich, NY, 2003."
2752,toluene,Cc1ccccc1,333.33,0.00300003,0.3799,-0.420330706,0.84177401,0.27,22.97305941,4.894426907,16.51490304,17.22513466,8.424703634,31.70091089,"WE Wasburn. International critical tables of numerical data, physics, chemistry and technology. 1st electronic edition. Knovel: Norwich, NY, 2003."
2753,toluene,Cc1ccccc1,342.28,0.002921585,0.3503,-0.455559863,0.828007549,0.29,23.10091089,4.727986224,16.18992398,16.86635506,8.246226462,31.92373267,"WE Wasburn. International critical tables of numerical data, physics, chemistry and technology. 1st electronic edition. Knovel: Norwich, NY, 2003."
2754,toluene,Cc1ccccc1,351.35,0.002846165,0.323,-0.490797478,0.817456617,0.41,23.2000198,4.586533996,15.94175673,16.58867354,8.11164155,32.1479901,"WE Wasburn. International critical tables of numerical data, physics, chemistry and technology. 1st electronic edition. Knovel: Norwich, NY, 2003."
2755,toluene,Cc1ccccc1,353.74,0.002826935,0.3164,-0.499763525,0.814460001,0.52,23.2299901,4.568381499,15.86751524,16.51232325,8.075337742,32.09410891,"WE Wasburn. International critical tables of numerical data, physics, chemistry and technology. 1st electronic edition. Knovel: Norwich, NY, 2003."
2756,toluene,Cc1ccccc1,364.89,0.002740552,0.2877,-0.541060138,0.804961861,0.57,23.31472277,4.441788615,15.6306717,16.24980918,7.949200452,32.17634653,"WE Wasburn. International critical tables of numerical data, physics, chemistry and technology. 1st electronic edition. Knovel: Norwich, NY, 2003."
2757,toluene,Cc1ccccc1,373.1,0.002680247,0.2695,-0.569441231,0.79523299,0.57,23.41755446,4.356095113,15.40172376,16.00614077,7.836231085,32.31606931,"WE Wasburn. International critical tables of numerical data, physics, chemistry and technology. 1st electronic edition. Knovel: Norwich, NY, 2003."
2758,toluene,Cc1ccccc1,380.23,0.002629987,0.2554,-0.592779107,0.787885762,0.82,23.48161386,4.258884479,15.22600055,15.81074059,7.742797955,32.4059802,"WE Wasburn. International critical tables of numerical data, physics, chemistry and technology. 1st electronic edition. Knovel: Norwich, NY, 2003."
2759,o-xylene,Cc1ccccc1C,273.64,0.003654436,1.095,0.039414119,0.900427811,0.02,22.16213861,5.3283312,17.92399674,18.69939656,10.39765754,30.65187129,"WE Wasburn. International critical tables of numerical data, physics, chemistry and technology. 1st electronic edition. Knovel: Norwich, NY, 2003."
2760,o-xylene,Cc1ccccc1C,287.03,0.003483956,0.881,-0.055024092,0.890890643,0.04,22.24819802,5.175330385,17.66336184,18.4060997,10.21977607,30.70866337,"WE Wasburn. International critical tables of numerical data, physics, chemistry and technology. 1st electronic edition. Knovel: Norwich, NY, 2003."
2761,o-xylene,Cc1ccccc1C,299.69,0.003336781,0.738,-0.131943638,0.8794098,0.07,22.34138614,5.01282301,17.37350295,18.08241293,10.03011486,30.80881188,"WE Wasburn. International critical tables of numerical data, physics, chemistry and technology. 1st electronic edition. Knovel: Norwich, NY, 2003."
2762,o-xylene,Cc1ccccc1C,312.48,0.003200205,0.628,-0.202040356,0.862276606,0.16,22.48488119,4.822021057,16.94694588,17.61983831,9.757008052,30.96108911,"WE Wasburn. International critical tables of numerical data, physics, chemistry and technology. 1st electronic edition. Knovel: Norwich, NY, 2003."
2763,o-xylene,Cc1ccccc1C,325.09,0.003076071,0.544,-0.2644011,0.854624067,0.21,22.55892079,4.703187339,16.73288283,17.3814803,9.61617403,31.05633663,"WE Wasburn. International critical tables of numerical data, physics, chemistry and technology. 1st electronic edition. Knovel: Norwich, NY, 2003."