Index,Name,CANON_SMILES,Temperature (K),Inverse temperature (1/K),Viscosity (cP),log(Viscosity),MD_density,MD_FV,MD_Rg,MD_SP_E,MD_SP_V,MD_SP,MD_HV,MD_RMSD,Reference
116,cyclopentane,C1CCCC1,273.1,0.003661662,0.56,-0.251811973,0.742986992,0.18,21.86950495,0.799401685,16.2265877,16.24631588,6.497534036,30.22692079,"Diego Alonso Saldana, Laurie Starck, Pascal Mougin, Bernard Rousseau, Nicolas Ferrando, and Benoit Creton. Prediction of density and viscosity of biofuel compounds using machine learning methods. Energy & fuels, 26(4):2416-2426, 2012."
117,cyclopentane,C1CCCC1,288.15,0.003470415,0.477,-0.321481621,0.731215077,0.26,21.98670297,0.779284971,15.87740807,15.89656399,6.365602462,30.3080396,"WE Wasburn. International critical tables of numerical data, physics, chemistry and technology. 1st electronic edition. Knovel: Norwich, NY, 2003."
118,cyclopentane,C1CCCC1,293.1,0.003411805,0.44,-0.356547324,0.716130709,0.42,22.14735644,0.746007735,15.4987183,15.51671284,6.21816203,30.58705941,"Diego Alonso Saldana, Laurie Starck, Pascal Mougin, Bernard Rousseau, Nicolas Ferrando, and Benoit Creton. Prediction of density and viscosity of biofuel compounds using machine learning methods. Energy & fuels, 26(4):2416-2426, 2012."
119,cyclopentane,C1CCCC1,293.15,0.003411223,0.456,-0.341035157,0.720158714,0.36,22.09108911,0.754921313,15.59238999,15.61069751,6.254825814,30.53641584,"WE Wasburn. International critical tables of numerical data, physics, chemistry and technology. 1st electronic edition. Knovel: Norwich, NY, 2003."
120,cyclopentane,C1CCCC1,303.15,0.003298697,0.406,-0.391473966,0.717552784,0.41,22.1280099,0.753506645,15.49761878,15.51596846,6.226432306,30.53380198,"WE Wasburn. International critical tables of numerical data, physics, chemistry and technology. 1st electronic edition. Knovel: Norwich, NY, 2003."
121,cyclopentane,C1CCCC1,313.1,0.003193868,0.36,-0.443697499,0.701270853,0.48,22.29472277,0.7219691,15.06992114,15.08726391,6.0631743,30.80511881,"Diego Alonso Saldana, Laurie Starck, Pascal Mougin, Bernard Rousseau, Nicolas Ferrando, and Benoit Creton. Prediction of density and viscosity of biofuel compounds using machine learning methods. Energy & fuels, 26(4):2416-2426, 2012."
122,cyclohexane,C1CCCCC1,283.1,0.003532321,1.18,0.071882007,0.769344907,0.18,21.61080198,0.696686697,16.32372895,16.33861303,7.54220532,29.66183168,"Diego Alonso Saldana, Laurie Starck, Pascal Mougin, Bernard Rousseau, Nicolas Ferrando, and Benoit Creton. Prediction of density and viscosity of biofuel compounds using machine learning methods. Energy & fuels, 26(4):2416-2426, 2012."
123,cyclohexane,C1CCCCC1,288.15,0.003470415,1.043,0.018284308,0.75703755,0.2,21.73744554,0.669566569,16.00657598,16.02060436,7.392276352,29.87946535,"WE Wasburn. International critical tables of numerical data, physics, chemistry and technology. 1st electronic edition. Knovel: Norwich, NY, 2003."
124,cyclohexane,C1CCCCC1,288.7,0.003463803,1.05,0.021189299,0.766821619,0.14,21.63742574,0.686664675,16.24333652,16.25786861,7.507262276,29.86207921,"Diego Alonso Saldana, Laurie Starck, Pascal Mougin, Bernard Rousseau, Nicolas Ferrando, and Benoit Creton. Prediction of density and viscosity of biofuel compounds using machine learning methods. Energy & fuels, 26(4):2416-2426, 2012."
125,cyclohexane,C1CCCCC1,293.1,0.003411805,0.98,-0.008773924,0.756359361,0.24,21.74225743,0.670622438,15.97487239,15.98896315,7.381285906,29.93449505,"Diego Alonso Saldana, Laurie Starck, Pascal Mougin, Bernard Rousseau, Nicolas Ferrando, and Benoit Creton. Prediction of density and viscosity of biofuel compounds using machine learning methods. Energy & fuels, 26(4):2416-2426, 2012."
126,cyclohexane,C1CCCCC1,295.15,0.003388108,0.93,-0.031517051,0.761048087,0.25,21.69905941,0.676312296,16.07677474,16.09101686,7.430022541,29.90973267,"WE Wasburn. International critical tables of numerical data, physics, chemistry and technology. 1st electronic edition. Knovel: Norwich, NY, 2003."
127,cyclohexane,C1CCCCC1,298.1,0.003354579,0.89,-0.050609993,0.750548815,0.33,21.80547525,0.665205612,15.81393192,15.82794079,7.306556417,29.91125743,"Diego Alonso Saldana, Laurie Starck, Pascal Mougin, Bernard Rousseau, Nicolas Ferrando, and Benoit Creton. Prediction of density and viscosity of biofuel compounds using machine learning methods. Energy & fuels, 26(4):2416-2426, 2012."
128,cyclohexane,C1CCCCC1,298.5,0.003350084,0.89,-0.050609993,0.753334247,0.27,21.77091089,0.661615915,15.88042372,15.89422541,7.338687446,29.81827723,"Diego Alonso Saldana, Laurie Starck, Pascal Mougin, Bernard Rousseau, Nicolas Ferrando, and Benoit Creton. Prediction of density and viscosity of biofuel compounds using machine learning methods. Energy & fuels, 26(4):2416-2426, 2012."
129,cyclohexane,C1CCCCC1,303.0,0.00330033,0.81,-0.091514981,0.754902557,0.21,21.75656436,0.667504046,15.90647611,15.92050818,7.355889724,29.96119802,"Diego Alonso Saldana, Laurie Starck, Pascal Mougin, Bernard Rousseau, Nicolas Ferrando, and Benoit Creton. Prediction of density and viscosity of biofuel compounds using machine learning methods. Energy & fuels, 26(4):2416-2426, 2012."
130,cyclohexane,C1CCCCC1,303.1,0.003299241,0.82,-0.086186148,0.752332887,0.22,21.77951485,0.665093616,15.83759977,15.85159013,7.320599858,29.96806931,"Diego Alonso Saldana, Laurie Starck, Pascal Mougin, Bernard Rousseau, Nicolas Ferrando, and Benoit Creton. Prediction of density and viscosity of biofuel compounds using machine learning methods. Energy & fuels, 26(4):2416-2426, 2012."
131,cyclohexane,C1CCCCC1,303.15,0.003298697,0.797,-0.098541679,0.750620928,0.28,21.7889604,0.663468338,15.79851279,15.8124658,7.30282676,29.98987129,"WE Wasburn. International critical tables of numerical data, physics, chemistry and technology. 1st electronic edition. Knovel: Norwich, NY, 2003."
132,cyclohexane,C1CCCCC1,308.1,0.003245699,0.76,-0.119186408,0.744696043,0.37,21.86429703,0.657486252,15.63865236,15.65250382,7.230020854,30.21110891,"Diego Alonso Saldana, Laurie Starck, Pascal Mougin, Bernard Rousseau, Nicolas Ferrando, and Benoit Creton. Prediction of density and viscosity of biofuel compounds using machine learning methods. Energy & fuels, 26(4):2416-2426, 2012."
133,cyclohexane,C1CCCCC1,308.2,0.003244646,0.75,-0.124938737,0.732607229,0.43,21.97145545,0.635794685,15.33983072,15.35303875,7.084489691,30.21779208,"Diego Alonso Saldana, Laurie Starck, Pascal Mougin, Bernard Rousseau, Nicolas Ferrando, and Benoit Creton. Prediction of density and viscosity of biofuel compounds using machine learning methods. Energy & fuels, 26(4):2416-2426, 2012."
134,cyclohexane,C1CCCCC1,309.0,0.003236246,0.75,-0.124938737,0.7361871,0.37,21.94312871,0.641972949,15.42283713,15.43622093,7.124591735,30.18178218,"Diego Alonso Saldana, Laurie Starck, Pascal Mougin, Bernard Rousseau, Nicolas Ferrando, and Benoit Creton. Prediction of density and viscosity of biofuel compounds using machine learning methods. Energy & fuels, 26(4):2416-2426, 2012."
135,cyclohexane,C1CCCCC1,313.0,0.003194888,0.7,-0.15490196,0.728767255,0.33,22.0050297,0.630054028,15.22937777,15.24243271,7.034719659,30.32808911,"Diego Alonso Saldana, Laurie Starck, Pascal Mougin, Bernard Rousseau, Nicolas Ferrando, and Benoit Creton. Prediction of density and viscosity of biofuel compounds using machine learning methods. Energy & fuels, 26(4):2416-2426, 2012."
136,cyclohexane,C1CCCCC1,313.1,0.003193868,0.7,-0.15490196,0.731335919,0.41,21.98955446,0.641620222,15.29090266,15.30438163,7.064445146,30.31205941,"Diego Alonso Saldana, Laurie Starck, Pascal Mougin, Bernard Rousseau, Nicolas Ferrando, and Benoit Creton. Prediction of density and viscosity of biofuel compounds using machine learning methods. Energy & fuels, 26(4):2416-2426, 2012."
137,cyclohexane,C1CCCCC1,318.1,0.003143666,0.65,-0.187086643,0.732717311,0.29,21.97019802,0.638983963,15.31345002,15.32680731,7.081100911,30.28123762,"Diego Alonso Saldana, Laurie Starck, Pascal Mougin, Bernard Rousseau, Nicolas Ferrando, and Benoit Creton. Prediction of density and viscosity of biofuel compounds using machine learning methods. Energy & fuels, 26(4):2416-2426, 2012."
138,cyclohexane,C1CCCCC1,323.0,0.003095975,0.61,-0.214670165,0.728940614,0.41,22.00857426,0.640545418,15.20622578,15.21973855,7.033985538,30.27890099,"Diego Alonso Saldana, Laurie Starck, Pascal Mougin, Bernard Rousseau, Nicolas Ferrando, and Benoit Creton. Prediction of density and viscosity of biofuel compounds using machine learning methods. Energy & fuels, 26(4):2416-2426, 2012."
139,cyclohexane,C1CCCCC1,323.1,0.003095017,0.6,-0.22184875,0.727028949,0.49,22.0320297,0.629438297,15.160488,15.17357524,7.012179548,30.23540594,"Diego Alonso Saldana, Laurie Starck, Pascal Mougin, Bernard Rousseau, Nicolas Ferrando, and Benoit Creton. Prediction of density and viscosity of biofuel compounds using machine learning methods. Energy & fuels, 26(4):2416-2426, 2012."
140,cyclohexane,C1CCCCC1,323.8,0.003088326,0.6,-0.22184875,0.727579857,0.41,22.02247525,0.63631265,15.17300372,15.18637257,7.019490909,30.22142574,"Diego Alonso Saldana, Laurie Starck, Pascal Mougin, Bernard Rousseau, Nicolas Ferrando, and Benoit Creton. Prediction of density and viscosity of biofuel compounds using machine learning methods. Energy & fuels, 26(4):2416-2426, 2012."
141,cyclohexane,C1CCCCC1,333.2,0.0030012,0.53,-0.27572413,0.716631175,0.54,22.13527723,0.618103452,14.87341177,14.88629571,6.88228634,30.52457426,"Diego Alonso Saldana, Laurie Starck, Pascal Mougin, Bernard Rousseau, Nicolas Ferrando, and Benoit Creton. Prediction of density and viscosity of biofuel compounds using machine learning methods. Energy & fuels, 26(4):2416-2426, 2012."
142,cyclohexane,C1CCCCC1,333.9,0.002994909,0.53,-0.27572413,0.71543254,0.6,22.14270297,0.613173966,14.84949433,14.86217515,6.873927526,30.49984158,"Diego Alonso Saldana, Laurie Starck, Pascal Mougin, Bernard Rousseau, Nicolas Ferrando, and Benoit Creton. Prediction of density and viscosity of biofuel compounds using machine learning methods. Energy & fuels, 26(4):2416-2426, 2012."
143,cyclohexane,C1CCCCC1,348.1,0.002872738,0.44,-0.356547324,0.695614261,0.88,22.34861386,0.590339985,14.33206327,14.34424964,6.641651818,30.83869307,"Diego Alonso Saldana, Laurie Starck, Pascal Mougin, Bernard Rousseau, Nicolas Ferrando, and Benoit Creton. Prediction of density and viscosity of biofuel compounds using machine learning methods. Energy & fuels, 26(4):2416-2426, 2012."
144,cycloheptane,C1CCCCCC1,286.6,0.003489184,1.64,0.214843848,0.793666501,0.1,21.38265347,0.654171948,16.53076076,16.54373586,8.662331391,29.39313861,"Diego Alonso Saldana, Laurie Starck, Pascal Mougin, Bernard Rousseau, Nicolas Ferrando, and Benoit Creton. Prediction of density and viscosity of biofuel compounds using machine learning methods. Energy & fuels, 26(4):2416-2426, 2012."
145,cycloheptane,C1CCCCCC1,298.15,0.003354016,1.37,0.136720567,0.777684558,0.21,21.53151485,0.637816395,16.09180418,16.10447167,8.418826829,29.52651485,"Valentin Goussard, Francois Duprat, Jean-Luc Ploix, G erard Dreyfus, Veronique Nardello-Rataj, and Jean-Marie Aubry. A new machine-learning tool for fast estimation of liquid viscosity. application to cosmetic oils. Journal of Chemical Information and Modeling, 60(4):2012-2023, 2020."
146,cyclooctane,C1CCCCCCC1,293.1,0.003411805,2.56,0.408239965,0.806533984,0.12,21.28734653,0.605435473,16.50523469,16.51636808,9.653709004,29.29389109,"Diego Alonso Saldana, Laurie Starck, Pascal Mougin, Bernard Rousseau, Nicolas Ferrando, and Benoit Creton. Prediction of density and viscosity of biofuel compounds using machine learning methods. Energy & fuels, 26(4):2416-2426, 2012."
147,cyclooctane,C1CCCCCCC1,298.1,0.003354579,2.21,0.344392274,0.798899793,0.13,21.3519802,0.59666842,16.29530646,16.30626586,9.51883545,29.17047525,"Diego Alonso Saldana, Laurie Starck, Pascal Mougin, Bernard Rousseau, Nicolas Ferrando, and Benoit Creton. Prediction of density and viscosity of biofuel compounds using machine learning methods. Energy & fuels, 26(4):2416-2426, 2012."
148,cyclooctane,C1CCCCCCC1,303.1,0.003299241,2.05,0.311753861,0.804113934,0.09,21.30852475,0.598825979,16.40561422,16.41657919,9.591269944,29.31329703,"Diego Alonso Saldana, Laurie Starck, Pascal Mougin, Bernard Rousseau, Nicolas Ferrando, and Benoit Creton. Prediction of density and viscosity of biofuel compounds using machine learning methods. Energy & fuels, 26(4):2416-2426, 2012."
149,cyclooctane,C1CCCCCCC1,313.1,0.003193868,1.68,0.225309282,0.79107255,0.15,21.42627723,0.586170578,16.05727233,16.0680046,9.37544001,29.34188119,"Diego Alonso Saldana, Laurie Starck, Pascal Mougin, Bernard Rousseau, Nicolas Ferrando, and Benoit Creton. Prediction of density and viscosity of biofuel compounds using machine learning methods. Energy & fuels, 26(4):2416-2426, 2012."
150,cyclooctane,C1CCCCCCC1,323.1,0.003095017,1.39,0.1430148,0.775470285,0.24,21.57060396,0.570421814,15.64757883,15.65800659,9.121565104,29.66053465,"Diego Alonso Saldana, Laurie Starck, Pascal Mougin, Bernard Rousseau, Nicolas Ferrando, and Benoit Creton. Prediction of density and viscosity of biofuel compounds using machine learning methods. Energy & fuels, 26(4):2416-2426, 2012."
151,cyclooctane,C1CCCCCCC1,333.1,0.003002101,1.17,0.068185862,0.778636132,0.22,21.54265347,0.569959214,15.69333034,15.70371552,9.156329322,29.57483168,"Diego Alonso Saldana, Laurie Starck, Pascal Mougin, Bernard Rousseau, Nicolas Ferrando, and Benoit Creton. Prediction of density and viscosity of biofuel compounds using machine learning methods. Energy & fuels, 26(4):2416-2426, 2012."
152,cyclooctane,C1CCCCCCC1,343.1,0.002914602,1.0,0.0,0.770688316,0.27,21.61157426,0.564454993,15.4762074,15.48654532,9.028087977,29.71354455,"Diego Alonso Saldana, Laurie Starck, Pascal Mougin, Bernard Rousseau, Nicolas Ferrando, and Benoit Creton. Prediction of density and viscosity of biofuel compounds using machine learning methods. Energy & fuels, 26(4):2416-2426, 2012."
153,cyclooctane,C1CCCCCCC1,353.1,0.002832059,0.87,-0.060480747,0.757188336,0.52,21.73512871,0.552352054,15.12630302,15.13642027,8.816980659,29.8079901,"Diego Alonso Saldana, Laurie Starck, Pascal Mougin, Bernard Rousseau, Nicolas Ferrando, and Benoit Creton. Prediction of density and viscosity of biofuel compounds using machine learning methods. Energy & fuels, 26(4):2416-2426, 2012."
154,trans-decahydronaphthalene,C1CC[C@H]2CCCC[C@@H]2C1,243.1,0.004113534,7.31,0.863917377,0.90753265,0.02,20.8319703,0.794685949,17.96458319,17.98217365,12.25659559,27.67028713,"Diego Alonso Saldana, Laurie Starck, Pascal Mougin, Bernard Rousseau, Nicolas Ferrando, and Benoit Creton. Prediction of density and viscosity of biofuel compounds using machine learning methods. Energy & fuels, 26(4):2416-2426, 2012."
155,trans-decahydronaphthalene,C1CC[C@H]2CCCC[C@@H]2C1,253.1,0.003951008,5.39,0.731588765,0.900840059,0.02,20.88432673,0.782951111,17.76572096,17.78299376,12.10263133,28.50547525,"Diego Alonso Saldana, Laurie Starck, Pascal Mougin, Bernard Rousseau, Nicolas Ferrando, and Benoit Creton. Prediction of density and viscosity of biofuel compounds using machine learning methods. Energy & fuels, 26(4):2416-2426, 2012."
156,trans-decahydronaphthalene,C1CC[C@H]2CCCC[C@@H]2C1,263.1,0.003800836,4.09,0.611723308,0.887942917,0.04,20.98608911,0.751885858,17.42046793,17.43671455,11.83714766,28.84847525,"Diego Alonso Saldana, Laurie Starck, Pascal Mougin, Bernard Rousseau, Nicolas Ferrando, and Benoit Creton. Prediction of density and viscosity of biofuel compounds using machine learning methods. Energy & fuels, 26(4):2416-2426, 2012."
157,trans-decahydronaphthalene,C1CC[C@H]2CCCC[C@@H]2C1,273.1,0.003661662,3.22,0.507855872,0.881368661,0.04,21.03277228,0.7470291,17.22686003,17.24308203,11.6896541,28.86985149,"Diego Alonso Saldana, Laurie Starck, Pascal Mougin, Bernard Rousseau, Nicolas Ferrando, and Benoit Creton. Prediction of density and viscosity of biofuel compounds using machine learning methods. Energy & fuels, 26(4):2416-2426, 2012."
158,trans-decahydronaphthalene,C1CC[C@H]2CCCC[C@@H]2C1,283.1,0.003532321,2.59,0.413299764,0.874848227,0.06,21.09322772,0.729301156,17.04225976,17.05789228,11.55271176,28.89253465,"Diego Alonso Saldana, Laurie Starck, Pascal Mougin, Bernard Rousseau, Nicolas Ferrando, and Benoit Creton. Prediction of density and viscosity of biofuel compounds using machine learning methods. Energy & fuels, 26(4):2416-2426, 2012."
159,trans-decahydronaphthalene,C1CC[C@H]2CCCC[C@@H]2C1,293.1,0.003411805,2.12,0.326335861,0.859671224,0.12,21.20678218,0.70760893,16.6458624,16.66092298,11.25209754,29.16189109,"Diego Alonso Saldana, Laurie Starck, Pascal Mougin, Bernard Rousseau, Nicolas Ferrando, and Benoit Creton. Prediction of density and viscosity of biofuel compounds using machine learning methods. Energy & fuels, 26(4):2416-2426, 2012."
160,trans-decahydronaphthalene,C1CC[C@H]2CCCC[C@@H]2C1,298.1,0.003354579,1.96,0.292256071,0.858346716,0.13,21.22040594,0.700341211,16.60583402,16.62062486,11.22686866,29.13941584,"Diego Alonso Saldana, Laurie Starck, Pascal Mougin, Bernard Rousseau, Nicolas Ferrando, and Benoit Creton. Prediction of density and viscosity of biofuel compounds using machine learning methods. Energy & fuels, 26(4):2416-2426, 2012."
161,trans-decahydronaphthalene,C1CC[C@H]2CCCC[C@@H]2C1,303.1,0.003299241,1.77,0.247973266,0.858020755,0.09,21.22040594,0.708060513,16.5764376,16.5915844,11.20370604,29.23054455,"Diego Alonso Saldana, Laurie Starck, Pascal Mougin, Bernard Rousseau, Nicolas Ferrando, and Benoit Creton. Prediction of density and viscosity of biofuel compounds using machine learning methods. Energy & fuels, 26(4):2416-2426, 2012."
162,trans-decahydronaphthalene,C1CC[C@H]2CCCC[C@@H]2C1,308.1,0.003245699,1.65,0.217483944,0.844556952,0.11,21.33042574,0.683752771,16.24779369,16.26221061,10.95927055,29.26038614,"Diego Alonso Saldana, Laurie Starck, Pascal Mougin, Bernard Rousseau, Nicolas Ferrando, and Benoit Creton. Prediction of density and viscosity of biofuel compounds using machine learning methods. Energy & fuels, 26(4):2416-2426, 2012."
163,trans-decahydronaphthalene,C1CC[C@H]2CCCC[C@@H]2C1,311.0,0.003215434,1.55,0.190331698,0.845538497,0.18,21.32610891,0.679792733,16.26979446,16.28402813,10.98075482,29.18731683,"Diego Alonso Saldana, Laurie Starck, Pascal Mougin, Bernard Rousseau, Nicolas Ferrando, and Benoit Creton. Prediction of density and viscosity of biofuel compounds using machine learning methods. Energy & fuels, 26(4):2416-2426, 2012."
164,trans-decahydronaphthalene,C1CC[C@H]2CCCC[C@@H]2C1,313.1,0.003193868,1.49,0.173186268,0.850802908,0.13,21.28540594,0.694051226,16.3877939,16.40251164,11.07122622,29.30107921,"Diego Alonso Saldana, Laurie Starck, Pascal Mougin, Bernard Rousseau, Nicolas Ferrando, and Benoit Creton. Prediction of density and viscosity of biofuel compounds using machine learning methods. Energy & fuels, 26(4):2416-2426, 2012."
165,trans-decahydronaphthalene,C1CC[C@H]2CCCC[C@@H]2C1,323.1,0.003095017,1.28,0.10720997,0.831894718,0.27,21.44886139,0.661647697,15.91563603,15.92941212,10.72102096,29.40327723,"Diego Alonso Saldana, Laurie Starck, Pascal Mougin, Bernard Rousseau, Nicolas Ferrando, and Benoit Creton. Prediction of density and viscosity of biofuel compounds using machine learning methods. Energy & fuels, 26(4):2416-2426, 2012."
166,trans-decahydronaphthalene,C1CC[C@H]2CCCC[C@@H]2C1,333.1,0.003002101,1.11,0.045322979,0.824539733,0.31,21.50290099,0.652794447,15.71691623,15.73049912,10.57843741,29.44840594,"Diego Alonso Saldana, Laurie Starck, Pascal Mougin, Bernard Rousseau, Nicolas Ferrando, and Benoit Creton. Prediction of density and viscosity of biofuel compounds using machine learning methods. Energy & fuels, 26(4):2416-2426, 2012."