Index,Name,CANON_SMILES,Temperature (K),Inverse temperature (1/K),Viscosity (cP),log(Viscosity),MD_density,MD_FV,MD_Rg,MD_SP_E,MD_SP_V,MD_SP,MD_HV,MD_RMSD,Reference
1999,propyl butanoate,CCCOC(=O)CCC,333.1,0.003002101,0.51,-0.292429824,0.836064627,0.29,22.40426733,4.660854719,15.99458614,16.66001597,10.99165157,30.87069307,"Diego Alonso Saldana, Laurie Starck, Pascal Mougin, Bernard Rousseau, Nicolas Ferrando, and Benoit Creton. Prediction of density and viscosity of biofuel compounds using machine learning methods. Energy & fuels, 26(4):2416-2426, 2012."
2000,propyl butanoate,CCCOC(=O)CCC,353.1,0.002832059,0.42,-0.37675071,0.826947059,0.24,22.48925743,4.542439213,15.73000916,16.3729901,10.78854131,30.94285149,"Diego Alonso Saldana, Laurie Starck, Pascal Mougin, Bernard Rousseau, Nicolas Ferrando, and Benoit Creton. Prediction of density and viscosity of biofuel compounds using machine learning methods. Energy & fuels, 26(4):2416-2426, 2012."
2001,propyl butanoate,CCCOC(=O)CCC,373.1,0.002680247,0.34,-0.468521083,0.793072416,0.64,22.8049703,4.28698661,14.92694644,15.53063657,10.20476181,31.386,"Diego Alonso Saldana, Laurie Starck, Pascal Mougin, Bernard Rousseau, Nicolas Ferrando, and Benoit Creton. Prediction of density and viscosity of biofuel compounds using machine learning methods. Energy & fuels, 26(4):2416-2426, 2012."
2002,propyl butanoate,CCCOC(=O)CCC,393.1,0.002543882,0.28,-0.552841969,0.773781975,0.78,22.99188119,4.111795447,14.44663366,15.02066029,9.853892816,31.68222772,"Diego Alonso Saldana, Laurie Starck, Pascal Mougin, Bernard Rousseau, Nicolas Ferrando, and Benoit Creton. Prediction of density and viscosity of biofuel compounds using machine learning methods. Energy & fuels, 26(4):2416-2426, 2012."
2003,N-propyl chloroformate,CCCOC(=O)Cl,293.15,0.003411223,0.8,-0.096910013,1.126771947,0.05,23.46023762,6.134532137,18.97082805,19.93814618,10.9162897,32.43018812,"Sunghwan Kim, Paul A Thiessen, Tiejun Cheng, Jian Zhang, Asta Gindulyte, and Evan E Bolton. Pug-view: programmatic access to chemical annotations integrated in pubchem. Journal of cheminformatics, 11(1):1-11, 2019."
2004,dipropyl carbonate,CCCOC(=O)OCCC,298.15,0.003354016,1.2,0.079181246,0.952228953,0.05,22.00260396,6.844311223,18.00955281,19.26640251,14.21241461,30.35822772,"Valentin Goussard, Francois Duprat, Jean-Luc Ploix, G erard Dreyfus, Veronique Nardello-Rataj, and Jean-Marie Aubry. A new machine-learning tool for fast estimation of liquid viscosity. application to cosmetic oils. Journal of Chemical Information and Modeling, 60(4):2012-2023, 2020."
2005,propyl ethanoate,CCCOC(C)=O,273.1,0.003661662,0.77,-0.113509275,0.924753509,0.04,22.10471287,6.837395779,17.91072327,19.17156034,10.2447567,30.56721782,"Diego Alonso Saldana, Laurie Starck, Pascal Mougin, Bernard Rousseau, Nicolas Ferrando, and Benoit Creton. Prediction of density and viscosity of biofuel compounds using machine learning methods. Energy & fuels, 26(4):2416-2426, 2012."
2006,n-propyl acetate,CCCOC(C)=O,273.53,0.003655906,0.7652,-0.116225039,0.9220535,0.06,22.12343564,6.802230403,17.84911196,19.10147274,10.20300655,30.55913861,"WE Wasburn. International critical tables of numerical data, physics, chemistry and technology. 1st electronic edition. Knovel: Norwich, NY, 2003."
2007,n-propyl acetate,CCCOC(C)=O,282.93,0.003534443,0.6659,-0.176590985,0.917257329,0.05,22.15982178,6.714301209,17.7119147,18.94197907,10.11072799,30.62839604,"WE Wasburn. International critical tables of numerical data, physics, chemistry and technology. 1st electronic edition. Knovel: Norwich, NY, 2003."
2008,propyl ethanoate,CCCOC(C)=O,283.1,0.003532321,0.67,-0.173925197,0.913916578,0.07,22.18990099,6.682446053,17.63323091,18.85713033,10.06030741,30.61132673,"Diego Alonso Saldana, Laurie Starck, Pascal Mougin, Bernard Rousseau, Nicolas Ferrando, and Benoit Creton. Prediction of density and viscosity of biofuel compounds using machine learning methods. Energy & fuels, 26(4):2416-2426, 2012."
2009,propyl ethanoate,CCCOC(C)=O,293.1,0.003411805,0.59,-0.229147988,0.912493422,0.04,22.20385149,6.632631079,17.56622727,18.77680439,10.0141309,30.62032673,"Diego Alonso Saldana, Laurie Starck, Pascal Mougin, Bernard Rousseau, Nicolas Ferrando, and Benoit Creton. Prediction of density and viscosity of biofuel compounds using machine learning methods. Energy & fuels, 26(4):2416-2426, 2012."
2010,n-propyl acetate,CCCOC(C)=O,293.74,0.003404371,0.5762,-0.239426746,0.905345218,0.08,22.25681188,6.561444405,17.40944223,18.6049787,9.91667759,30.80265347,"WE Wasburn. International critical tables of numerical data, physics, chemistry and technology. 1st electronic edition. Knovel: Norwich, NY, 2003."
2011,propyl ethanoate,CCCOC(C)=O,298.1,0.003354579,0.55,-0.259637311,0.90413773,0.08,22.26062376,6.549470125,17.36890328,18.5628725,9.895543656,30.67976238,"Diego Alonso Saldana, Laurie Starck, Pascal Mougin, Bernard Rousseau, Nicolas Ferrando, and Benoit Creton. Prediction of density and viscosity of biofuel compounds using machine learning methods. Energy & fuels, 26(4):2416-2426, 2012."
2012,propyl ethanoate,CCCOC(C)=O,303.1,0.003299241,0.52,-0.283996656,0.891812315,0.11,22.37415842,6.429912251,17.08588996,18.25587397,9.724681376,30.93449505,"Diego Alonso Saldana, Laurie Starck, Pascal Mougin, Bernard Rousseau, Nicolas Ferrando, and Benoit Creton. Prediction of density and viscosity of biofuel compounds using machine learning methods. Energy & fuels, 26(4):2416-2426, 2012."
2013,n-propyl acetate,CCCOC(C)=O,303.28,0.003297283,0.5108,-0.291749111,0.896334389,0.12,22.32842574,6.464325454,17.18155647,18.35754053,9.780379974,30.8440495,"WE Wasburn. International critical tables of numerical data, physics, chemistry and technology. 1st electronic edition. Knovel: Norwich, NY, 2003."
2014,n-propyl acetate,CCCOC(C)=O,312.9,0.003195909,0.4563,-0.340749531,0.881486261,0.17,22.45533663,6.29928348,16.8255181,17.96625672,9.560518549,30.98155446,"WE Wasburn. International critical tables of numerical data, physics, chemistry and technology. 1st electronic edition. Knovel: Norwich, NY, 2003."
2015,propyl ethanoate,CCCOC(C)=O,313.1,0.003193868,0.46,-0.337242168,0.882939367,0.16,22.44514851,6.310537562,16.86126035,18.0036265,9.583357672,30.99905941,"Diego Alonso Saldana, Laurie Starck, Pascal Mougin, Bernard Rousseau, Nicolas Ferrando, and Benoit Creton. Prediction of density and viscosity of biofuel compounds using machine learning methods. Energy & fuels, 26(4):2416-2426, 2012."
2016,propyl ethanoate,CCCOC(C)=O,323.1,0.003095017,0.41,-0.387216143,0.87061064,0.21,22.55257426,6.177466784,16.56976537,17.6840054,9.410320945,31.12187129,"Diego Alonso Saldana, Laurie Starck, Pascal Mougin, Bernard Rousseau, Nicolas Ferrando, and Benoit Creton. Prediction of density and viscosity of biofuel compounds using machine learning methods. Energy & fuels, 26(4):2416-2426, 2012."
2017,n-propyl acetate,CCCOC(C)=O,323.19,0.003094155,0.4079,-0.389446295,0.867587561,0.21,22.5750297,6.150390057,16.50335546,17.61237253,9.369929417,31.14555446,"WE Wasburn. International critical tables of numerical data, physics, chemistry and technology. 1st electronic edition. Knovel: Norwich, NY, 2003."
2018,propyl ethanoate,CCCOC(C)=O,333.1,0.003002101,0.37,-0.431798276,0.861810305,0.23,22.63347525,6.072693594,16.34290284,17.43483847,9.271870014,31.26237624,"Diego Alonso Saldana, Laurie Starck, Pascal Mougin, Bernard Rousseau, Nicolas Ferrando, and Benoit Creton. Prediction of density and viscosity of biofuel compounds using machine learning methods. Energy & fuels, 26(4):2416-2426, 2012."
2019,n-propyl acetate,CCCOC(C)=O,334.51,0.002989447,0.3624,-0.440811811,0.853119581,0.31,22.7119802,5.989980232,16.15472734,17.22965272,9.158863307,31.35275248,"WE Wasburn. International critical tables of numerical data, physics, chemistry and technology. 1st electronic edition. Knovel: Norwich, NY, 2003."
2020,n-propyl acetate,CCCOC(C)=O,343.05,0.002915027,0.3331,-0.477425367,0.854889782,0.26,22.68859406,5.968866694,16.16252374,17.22959356,9.15820349,31.38150495,"WE Wasburn. International critical tables of numerical data, physics, chemistry and technology. 1st electronic edition. Knovel: Norwich, NY, 2003."
2021,propyl ethanoate,CCCOC(C)=O,343.1,0.002914602,0.34,-0.468521083,0.842740782,0.36,22.79851485,5.879895456,15.90897949,16.96100408,9.014493079,31.45076238,"Diego Alonso Saldana, Laurie Starck, Pascal Mougin, Bernard Rousseau, Nicolas Ferrando, and Benoit Creton. Prediction of density and viscosity of biofuel compounds using machine learning methods. Energy & fuels, 26(4):2416-2426, 2012."
2022,propyl ethanoate,CCCOC(C)=O,353.1,0.002832059,0.31,-0.508638306,0.834967239,0.37,22.86721782,5.808576956,15.70455896,16.74454477,8.898654204,31.55340594,"Diego Alonso Saldana, Laurie Starck, Pascal Mougin, Bernard Rousseau, Nicolas Ferrando, and Benoit Creton. Prediction of density and viscosity of biofuel compounds using machine learning methods. Energy & fuels, 26(4):2416-2426, 2012."
2023,n-propyl acetate,CCCOC(C)=O,353.15,0.002831658,0.3028,-0.518844129,0.835540374,0.39,22.86463366,5.793933753,15.72120181,16.75504223,8.903398177,31.66441584,"WE Wasburn. International critical tables of numerical data, physics, chemistry and technology. 1st electronic edition. Knovel: Norwich, NY, 2003."
2024,n-propyl acetate,CCCOC(C)=O,362.65,0.00275748,0.2775,-0.556737013,0.834671888,0.43,22.86630693,5.737669542,15.68045341,16.69741008,8.874442011,31.62437624,"WE Wasburn. International critical tables of numerical data, physics, chemistry and technology. 1st electronic edition. Knovel: Norwich, NY, 2003."
2025,propyl ethanoate,CCCOC(C)=O,363.1,0.002754062,0.28,-0.552841969,0.821693538,0.52,22.99621782,5.670480472,15.40564907,16.4163098,8.727599716,31.7119901,"Diego Alonso Saldana, Laurie Starck, Pascal Mougin, Bernard Rousseau, Nicolas Ferrando, and Benoit Creton. Prediction of density and viscosity of biofuel compounds using machine learning methods. Energy & fuels, 26(4):2416-2426, 2012."
2026,n-propyl acetate,CCCOC(C)=O,370.05,0.002702338,0.2602,-0.584692708,0.821994239,0.53,22.99148515,5.634337072,15.39370871,16.39267849,8.715458528,31.74478218,"WE Wasburn. International critical tables of numerical data, physics, chemistry and technology. 1st electronic edition. Knovel: Norwich, NY, 2003."
2027,propyl ethanoate,CCCOC(C)=O,373.1,0.002680247,0.26,-0.585026652,0.817946916,0.43,23.02349505,5.615736363,15.29907925,16.29741787,8.668078927,31.67862376,"Diego Alonso Saldana, Laurie Starck, Pascal Mougin, Bernard Rousseau, Nicolas Ferrando, and Benoit Creton. Prediction of density and viscosity of biofuel compounds using machine learning methods. Energy & fuels, 26(4):2416-2426, 2012."
2028,propyl methanoate,CCCOC=O,273.1,0.003661662,0.67,-0.173925197,0.918376901,0.05,22.4979703,6.749303252,17.88414431,19.11543509,8.921128214,31.07306931,"Diego Alonso Saldana, Laurie Starck, Pascal Mougin, Bernard Rousseau, Nicolas Ferrando, and Benoit Creton. Prediction of density and viscosity of biofuel compounds using machine learning methods. Energy & fuels, 26(4):2416-2426, 2012."
2029,n-propyl formate,CCCOC=O,280.48,0.003565317,0.6041,-0.218891164,0.910356247,0.1,22.57156436,6.651524056,17.67839762,18.88846358,8.810080062,31.17669307,"WE Wasburn. International critical tables of numerical data, physics, chemistry and technology. 1st electronic edition. Knovel: Norwich, NY, 2003."
2030,propyl methanoate,CCCOC=O,280.5,0.003565062,0.6,-0.22184875,0.91323254,0.07,22.5429505,6.663702359,17.73722789,18.94778616,8.835882765,31.15225743,"Diego Alonso Saldana, Laurie Starck, Pascal Mougin, Bernard Rousseau, Nicolas Ferrando, and Benoit Creton. Prediction of density and viscosity of biofuel compounds using machine learning methods. Energy & fuels, 26(4):2416-2426, 2012."
2031,propyl methanoate,CCCOC=O,288.1,0.003471017,0.54,-0.26760624,0.898436966,0.1,22.66245545,6.539828866,17.40257202,18.59095552,8.673363814,31.29830693,"Diego Alonso Saldana, Laurie Starck, Pascal Mougin, Bernard Rousseau, Nicolas Ferrando, and Benoit Creton. Prediction of density and viscosity of biofuel compounds using machine learning methods. Energy & fuels, 26(4):2416-2426, 2012."
2032,n-propyl formate,CCCOC=O,288.69,0.003463923,0.5457,-0.263046046,0.905595703,0.08,22.59916832,6.552220789,17.53831975,18.72242206,8.72457252,31.18658416,"WE Wasburn. International critical tables of numerical data, physics, chemistry and technology. 1st electronic edition. Knovel: Norwich, NY, 2003."
2033,propyl methanoate,CCCOC=O,288.7,0.003463803,0.55,-0.259637311,0.90011228,0.09,22.65077228,6.50500742,17.4261066,18.60076217,8.668001436,31.3550396,"Diego Alonso Saldana, Laurie Starck, Pascal Mougin, Bernard Rousseau, Nicolas Ferrando, and Benoit Creton. Prediction of density and viscosity of biofuel compounds using machine learning methods. Energy & fuels, 26(4):2416-2426, 2012."
2034,propyl methanoate,CCCOC=O,293.1,0.003411805,0.52,-0.283996656,0.901846472,0.06,22.64171287,6.526241037,17.44654575,18.62737392,8.684329442,31.28461386,"Diego Alonso Saldana, Laurie Starck, Pascal Mougin, Bernard Rousseau, Nicolas Ferrando, and Benoit Creton. Prediction of density and viscosity of biofuel compounds using machine learning methods. Energy & fuels, 26(4):2416-2426, 2012."
2035,Propyl formate,CCCOC=O,296.15,0.003376667,0.51,-0.292429824,0.889412461,0.17,22.73560396,6.349632842,17.16692056,18.3037867,8.520704389,31.40072277,"Dabir S Viswanath, Tushar K Ghosh, Dasika HL Prasad, Nidamarty VK Dutt, Kalipatnapu Y Rani, Dabir S Viswanath, Tushar K Ghosh, Dasika HL Prasad, Nidamarty VK Dutt, and Kalipatnapu Y Rani. Correlations and estimation of pure liquid viscosity.Viscosity of Liquids: Theory, Estimation, Experiment, and Data, pages 135-405, 2007."
2036,propyl methanoate,CCCOC=O,296.3,0.003374958,0.5,-0.301029996,0.896727797,0.09,22.67924752,6.452341689,17.32366911,18.48639875,8.614070736,31.31261386,"Diego Alonso Saldana, Laurie Starck, Pascal Mougin, Bernard Rousseau, Nicolas Ferrando, and Benoit Creton. Prediction of density and viscosity of biofuel compounds using machine learning methods. Energy & fuels, 26(4):2416-2426, 2012."
2037,n-propyl formate,CCCOC=O,296.31,0.003374844,0.4975,-0.303206915,0.888655827,0.2,22.74542574,6.401817175,17.16072723,18.31612185,8.538493129,31.42179208,"WE Wasburn. International critical tables of numerical data, physics, chemistry and technology. 1st electronic edition. Knovel: Norwich, NY, 2003."
2038,propyl methanoate,CCCOC=O,303.1,0.003299241,0.46,-0.337242168,0.879369616,0.12,22.8359703,6.290423736,16.93148445,18.06244064,8.414948684,31.53727723,"Diego Alonso Saldana, Laurie Starck, Pascal Mougin, Bernard Rousseau, Nicolas Ferrando, and Benoit Creton. Prediction of density and viscosity of biofuel compounds using machine learning methods. Energy & fuels, 26(4):2416-2426, 2012."
2039,propyl methanoate,CCCOC=O,303.9,0.003290556,0.46,-0.337242168,0.881298482,0.19,22.81221782,6.300322744,16.97365011,18.1053793,8.436541793,31.49653465,"Diego Alonso Saldana, Laurie Starck, Pascal Mougin, Bernard Rousseau, Nicolas Ferrando, and Benoit Creton. Prediction of density and viscosity of biofuel compounds using machine learning methods. Energy & fuels, 26(4):2416-2426, 2012."
2040,n-propyl formate,CCCOC=O,303.92,0.00329034,0.4558,-0.341225679,0.883870285,0.17,22.79320792,6.299235054,17.0317429,18.15946694,8.460512503,31.51307921,"WE Wasburn. International critical tables of numerical data, physics, chemistry and technology. 1st electronic edition. Knovel: Norwich, NY, 2003."
2041,n-propyl formate,CCCOC=O,311.68,0.003208419,0.4184,-0.378408324,0.878962401,0.19,22.83263366,6.22387379,16.89631851,18.0063198,8.387135554,31.52594059,"WE Wasburn. International critical tables of numerical data, physics, chemistry and technology. 1st electronic edition. Knovel: Norwich, NY, 2003."
2042,propyl methanoate,CCCOC=O,311.7,0.003208213,0.42,-0.37675071,0.874276674,0.22,22.86692079,6.229182307,16.79616864,17.91422423,8.349099223,31.54630693,"Diego Alonso Saldana, Laurie Starck, Pascal Mougin, Bernard Rousseau, Nicolas Ferrando, and Benoit Creton. Prediction of density and viscosity of biofuel compounds using machine learning methods. Energy & fuels, 26(4):2416-2426, 2012."
2043,propyl methanoate,CCCOC=O,313.1,0.003193868,0.42,-0.37675071,0.871333396,0.18,22.89627723,6.176528679,16.73681887,17.84028803,8.314115682,31.66374257,"Diego Alonso Saldana, Laurie Starck, Pascal Mougin, Bernard Rousseau, Nicolas Ferrando, and Benoit Creton. Prediction of density and viscosity of biofuel compounds using machine learning methods. Energy & fuels, 26(4):2416-2426, 2012."
2044,Propyl formate,CCCOC=O,313.15,0.003193358,0.417,-0.379863945,0.871327735,0.23,22.89485149,6.171138315,16.73344539,17.83527081,8.309934206,31.6030396,"A Dean John et al. Lange's handbook of chemistry. In Universitas Of Tennese Knoxville, Fifthenth Edition, Mc. Graw Hill Inc, New York. Conference, 1999."
2045,n-propyl formate,CCCOC=O,318.88,0.003135976,0.3875,-0.411728293,0.871421805,0.18,22.89438614,6.137870051,16.71486422,17.80635785,8.295593812,31.72743564,"WE Wasburn. International critical tables of numerical data, physics, chemistry and technology. 1st electronic edition. Knovel: Norwich, NY, 2003."
2046,propyl methanoate,CCCOC=O,318.9,0.003135779,0.39,-0.408935393,0.862634008,0.36,22.96557426,6.075330331,16.53088009,17.61212131,8.205745942,31.75430693,"Diego Alonso Saldana, Laurie Starck, Pascal Mougin, Bernard Rousseau, Nicolas Ferrando, and Benoit Creton. Prediction of density and viscosity of biofuel compounds using machine learning methods. Energy & fuels, 26(4):2416-2426, 2012."
2047,propyl methanoate,CCCOC=O,323.1,0.003095017,0.38,-0.420216403,0.865617788,0.24,22.94514851,6.06303928,16.57621659,17.65042207,8.220848205,31.74058416,"Diego Alonso Saldana, Laurie Starck, Pascal Mougin, Bernard Rousseau, Nicolas Ferrando, and Benoit Creton. Prediction of density and viscosity of biofuel compounds using machine learning methods. Energy & fuels, 26(4):2416-2426, 2012."
2048,n-propyl formate,CCCOC=O,327.29,0.003055394,0.3565,-0.447940466,0.854859974,0.33,23.05086139,5.907901243,16.34033833,17.37573684,8.087538255,31.80715842,"WE Wasburn. International critical tables of numerical data, physics, chemistry and technology. 1st electronic edition. Knovel: Norwich, NY, 2003."
2049,propyl methanoate,CCCOC=O,327.3,0.003055301,0.36,-0.443697499,0.852639882,0.29,23.06168317,5.987507006,16.28660355,17.3525141,8.087016137,31.87155446,"Diego Alonso Saldana, Laurie Starck, Pascal Mougin, Bernard Rousseau, Nicolas Ferrando, and Benoit Creton. Prediction of density and viscosity of biofuel compounds using machine learning methods. Energy & fuels, 26(4):2416-2426, 2012."
2050,propyl methanoate,CCCOC=O,333.1,0.003002101,0.34,-0.468521083,0.843295667,0.32,23.14310891,5.836412625,16.08842403,17.11454626,7.976137043,32.0349703,"Diego Alonso Saldana, Laurie Starck, Pascal Mougin, Bernard Rousseau, Nicolas Ferrando, and Benoit Creton. Prediction of density and viscosity of biofuel compounds using machine learning methods. Energy & fuels, 26(4):2416-2426, 2012."
2051,propyl methanoate,CCCOC=O,334.7,0.00298775,0.33,-0.48148606,0.842609616,0.39,23.15657426,5.845298931,16.04740992,17.07901629,7.954896014,31.9450396,"Diego Alonso Saldana, Laurie Starck, Pascal Mougin, Bernard Rousseau, Nicolas Ferrando, and Benoit Creton. Prediction of density and viscosity of biofuel compounds using machine learning methods. Energy & fuels, 26(4):2416-2426, 2012."
2052,n-propyl formate,CCCOC=O,334.71,0.002987661,0.3315,-0.479516467,0.849513031,0.31,23.08816832,5.915339503,16.19682639,17.24340264,8.035556452,31.90283168,"WE Wasburn. International critical tables of numerical data, physics, chemistry and technology. 1st electronic edition. Knovel: Norwich, NY, 2003."