Index,Name,CANON_SMILES,Temperature (K),Inverse temperature (1/K),Viscosity (cP),log(Viscosity),MD_density,MD_FV,MD_Rg,MD_SP_E,MD_SP_V,MD_SP,MD_HV,MD_RMSD,Reference
1184,Pentanenitrile,CCCCC#N,303.15,0.003298697,0.637,-0.195860568,0.752045849,0.3,23.05659406,10.23234993,14.69260592,17.90466134,9.072194299,31.87493069,"A Dean John et al. Lange's handbook of chemistry. In Universitas Of Tennese Knoxville, Fifthenth Edition, Mc. Graw Hill Inc, New York. Conference, 1999."
1185,3-heptanone,CCCCC(=O)CC,293.15,0.003411223,0.84,-0.075720714,0.81394846,0.12,21.96221782,6.874850903,16.55849221,17.92913341,11.3608598,30.27269307,"Sunghwan Kim, Paul A Thiessen, Tiejun Cheng, Jian Zhang, Asta Gindulyte, and Evan E Bolton. Pug-view: programmatic access to chemical annotations integrated in pubchem. Journal of cheminformatics, 11(1):1-11, 2019."
1186,3-heptanone,CCCCC(=O)CC,298.15,0.003354016,0.743019138,-0.129,0.818229101,0.1,21.92338614,6.880874646,16.63099056,17.99840725,11.39740789,30.20611881,"Gregory W Kau man and Peter C Jurs. Prediction of surface tension, viscosity, and thermal conductivity for common organic solvents using quantitative structure- property relationships. Journal of chemical information and computer sciences, 41(2):408-418, 2001."
1187,Pentanoic acid,CCCCC(=O)O,288.15,0.003470415,2.359,0.372727941,0.962458028,0.05,21.80846535,16.92817878,17.8982364,24.63581967,15.96576489,30.08885149,"A Dean John et al. Lange's handbook of chemistry. In Universitas Of Tennese Knoxville, Fifthenth Edition, Mc. Graw Hill Inc, New York. Conference, 1999."
1188,Pentanoic acid,CCCCC(=O)O,303.15,0.003298697,1.774,0.248953616,0.944836814,0.09,21.94147525,16.52129867,17.51029587,24.07443644,15.57619297,30.3610099,"A Dean John et al. Lange's handbook of chemistry. In Universitas Of Tennese Knoxville, Fifthenth Edition, Mc. Graw Hill Inc, New York. Conference, 1999."
1189,n-valeric acid,CCCCC(=O)O,363.15,0.002753683,0.753,-0.123205024,0.892831797,0.28,22.35566337,15.10594861,16.34825566,22.25930035,14.2682647,30.9169802,"WE Wasburn. International critical tables of numerical data, physics, chemistry and technology. 1st electronic edition. Knovel: Norwich, NY, 2003."
1190,methyl pentanoate,CCCCC(=O)OC,298.15,0.003354016,0.62,-0.207608311,0.898892194,0.08,22.06482178,6.155124642,17.30246339,18.36483883,11.00925292,30.547,"Valentin Goussard, Francois Duprat, Jean-Luc Ploix, G erard Dreyfus, Veronique Nardello-Rataj, and Jean-Marie Aubry. A new machine-learning tool for fast estimation of liquid viscosity. application to cosmetic oils. Journal of Chemical Information and Modeling, 60(4):2012-2023, 2020."
1191,ethyl n-valerate,CCCCC(=O)OCC,323.15,0.003094538,0.536,-0.27083521,0.858213161,0.21,22.20821782,4.952561417,16.56204561,17.28689946,11.47684282,30.5660099,"WE Wasburn. International critical tables of numerical data, physics, chemistry and technology. 1st electronic edition. Knovel: Norwich, NY, 2003."
1192,isobutyl n-valerate,CCCCC(=O)OCC(C)C,298.15,0.003354016,1.01,0.004321374,0.867586225,0.15,21.8679703,4.126347849,16.70303011,17.20530399,13.49696341,30.10844554,"WE Wasburn. International critical tables of numerical data, physics, chemistry and technology. 1st electronic edition. Knovel: Norwich, NY, 2003."
1193,"2,2-dimethylhexane",CCCCC(C)(C)C,273.1,0.003661662,0.48,-0.318758763,0.730283556,0.14,21.54794059,0.560058995,15.42241748,15.43261255,9.446625819,29.49854455,"Diego Alonso Saldana, Laurie Starck, Pascal Mougin, Bernard Rousseau, Nicolas Ferrando, and Benoit Creton. Prediction of density and viscosity of biofuel compounds using machine learning methods. Energy & fuels, 26(4):2416-2426, 2012."
1194,"2,2-dimethylhexane",CCCCC(C)(C)C,293.1,0.003411805,0.38,-0.420216403,0.716213363,0.28,21.68423762,0.54335138,14.99751052,15.00738186,9.167899014,29.89408911,"Diego Alonso Saldana, Laurie Starck, Pascal Mougin, Bernard Rousseau, Nicolas Ferrando, and Benoit Creton. Prediction of density and viscosity of biofuel compounds using machine learning methods. Energy & fuels, 26(4):2416-2426, 2012."
1195,"2,2-dimethylhexane",CCCCC(C)(C)C,313.1,0.003193868,0.31,-0.508638306,0.688828887,0.53,21.96234653,0.513622394,14.24240374,14.25169131,8.672565569,30.16556436,"Diego Alonso Saldana, Laurie Starck, Pascal Mougin, Bernard Rousseau, Nicolas Ferrando, and Benoit Creton. Prediction of density and viscosity of biofuel compounds using machine learning methods. Energy & fuels, 26(4):2416-2426, 2012."
1196,2-methy Ihexane,CCCCC(C)C,273.57,0.003655372,0.4743,-0.323946875,0.701482869,0.22,21.77120792,0.57752918,15.2602897,15.27124259,8.5057333,29.89369307,"WE Wasburn. International critical tables of numerical data, physics, chemistry and technology. 1st electronic edition. Knovel: Norwich, NY, 2003."
1197,2-methy Ihexane,CCCCC(C)C,280.85,0.00356062,0.4343,-0.362210171,0.696155835,0.2,21.82551485,0.577905892,15.09662889,15.10771477,8.410229166,29.96027723,"WE Wasburn. International critical tables of numerical data, physics, chemistry and technology. 1st electronic edition. Knovel: Norwich, NY, 2003."
1198,2-methy Ihexane,CCCCC(C)C,289.03,0.003459848,0.3959,-0.402414498,0.691103785,0.23,21.87676238,0.572617076,14.94019294,14.95119489,8.320847259,30.19855446,"WE Wasburn. International critical tables of numerical data, physics, chemistry and technology. 1st electronic edition. Knovel: Norwich, NY, 2003."
1199,2-Methylhexane,CCCCC(C)C,293.15,0.003411223,0.378,-0.4225082,0.673894954,0.46,22.05561386,0.542553366,14.48764927,14.49783923,8.052374873,30.38193069,"A Dean John et al. Lange's handbook of chemistry. In Universitas Of Tennese Knoxville, Fifthenth Edition, Mc. Graw Hill Inc, New York. Conference, 1999."
1200,2-methy Ihexane,CCCCC(C)C,297.78,0.003358184,0.3607,-0.442853858,0.678857244,0.3,22.01246535,0.554919386,14.58884903,14.59943827,8.111261491,30.18474257,"WE Wasburn. International critical tables of numerical data, physics, chemistry and technology. 1st electronic edition. Knovel: Norwich, NY, 2003."
1201,2-methy Ihexane,CCCCC(C)C,305.46,0.003273751,0.3333,-0.477164686,0.660994504,0.56,22.20128713,0.529428007,14.13593209,14.14587286,7.857358737,30.56134653,"WE Wasburn. International critical tables of numerical data, physics, chemistry and technology. 1st electronic edition. Knovel: Norwich, NY, 2003."
1202,2-methy Ihexane,CCCCC(C)C,313.2,0.003192848,0.3092,-0.509760515,0.655911753,0.71,22.26213861,0.52111707,13.97733437,13.98708844,7.76579962,30.59655446,"WE Wasburn. International critical tables of numerical data, physics, chemistry and technology. 1st electronic edition. Knovel: Norwich, NY, 2003."
1203,2-methy Ihexane,CCCCC(C)C,322.16,0.003104048,0.2839,-0.546834608,0.655233528,0.65,22.27117822,0.524398301,13.92848883,13.93839578,7.741306132,30.66283168,"WE Wasburn. International critical tables of numerical data, physics, chemistry and technology. 1st electronic edition. Knovel: Norwich, NY, 2003."
1204,2-methy Ihexane,CCCCC(C)C,329.61,0.003033889,0.2651,-0.576590272,0.641970655,1.08,22.41549505,0.509138777,13.57378748,13.58336854,7.538298504,30.81092079,"WE Wasburn. International critical tables of numerical data, physics, chemistry and technology. 1st electronic edition. Knovel: Norwich, NY, 2003."
1205,2-methy Ihexane,CCCCC(C)C,337.07,0.002966743,0.2484,-0.604848409,0.631481198,1.01,22.5480099,0.49535595,13.29850831,13.30775851,7.386382328,30.96087129,"WE Wasburn. International critical tables of numerical data, physics, chemistry and technology. 1st electronic edition. Knovel: Norwich, NY, 2003."
1206,2-methy Ihexane,CCCCC(C)C,344.99,0.002898635,0.2316,-0.635261445,0.620318326,1.41,22.6789505,0.483493784,13.00594397,13.01496304,7.225434074,31.19678218,"WE Wasburn. International critical tables of numerical data, physics, chemistry and technology. 1st electronic edition. Knovel: Norwich, NY, 2003."
1207,2-methy Ihexane,CCCCC(C)C,353.81,0.002826376,0.2149,-0.667763585,0.613369543,1.74,22.78153465,0.471330677,12.81031539,12.81901585,7.119401009,31.35107921,"WE Wasburn. International critical tables of numerical data, physics, chemistry and technology. 1st electronic edition. Knovel: Norwich, NY, 2003."
1208,2-methy Ihexane,CCCCC(C)C,361.56,0.002765793,0.2012,-0.696372024,0.611974981,1.52,22.78111881,0.472055403,12.76105862,12.76982253,7.100157949,31.31569307,"WE Wasburn. International critical tables of numerical data, physics, chemistry and technology. 1st electronic edition. Knovel: Norwich, NY, 2003."
1209,"2,4,6-trimethyl-decane",CCCCC(C)CC(C)CC(C)C,298.15,0.003354016,1.4,0.146128036,0.75601173,0.18,21.48545545,0.561314483,15.09341743,15.10387822,13.88901086,29.37792079,"Valentin Goussard, Francois Duprat, Jean-Luc Ploix, G erard Dreyfus, Veronique Nardello-Rataj, and Jean-Marie Aubry. A new machine-learning tool for fast estimation of liquid viscosity. application to cosmetic oils. Journal of Chemical Information and Modeling, 60(4):2012-2023, 2020."
1210,2-hexanol,CCCCC(C)O,278.1,0.003595829,14.56,1.163161375,0.837215754,0.07,21.29281188,14.50298398,16.27675985,21.80108143,14.41638406,29.06757426,"Diego Alonso Saldana, Laurie Starck, Pascal Mougin, Bernard Rousseau, Nicolas Ferrando, and Benoit Creton. Prediction of density and viscosity of biofuel compounds using machine learning methods. Energy & fuels, 26(4):2416-2426, 2012."
1211,2-hexanol,CCCCC(C)O,288.1,0.003471017,8.02,0.904174368,0.824226515,0.14,21.40073267,14.09767841,15.99263818,21.31980718,14.03991032,29.47156436,"Diego Alonso Saldana, Laurie Starck, Pascal Mougin, Bernard Rousseau, Nicolas Ferrando, and Benoit Creton. Prediction of density and viscosity of biofuel compounds using machine learning methods. Energy & fuels, 26(4):2416-2426, 2012."
1212,2-hexanol,CCCCC(C)O,298.1,0.003354579,5.84,0.766412847,0.813241523,0.14,21.49643564,13.73950839,15.74469648,20.89713803,13.70588871,29.53455446,"Diego Alonso Saldana, Laurie Starck, Pascal Mougin, Bernard Rousseau, Nicolas Ferrando, and Benoit Creton. Prediction of density and viscosity of biofuel compounds using machine learning methods. Energy & fuels, 26(4):2416-2426, 2012."
1213,2-hexanol,CCCCC(C)O,308.1,0.003245699,3.97,0.598790507,0.804608684,0.2,21.57579208,13.35481048,15.56986415,20.51323356,13.38395922,29.67823762,"Diego Alonso Saldana, Laurie Starck, Pascal Mougin, Bernard Rousseau, Nicolas Ferrando, and Benoit Creton. Prediction of density and viscosity of biofuel compounds using machine learning methods. Energy & fuels, 26(4):2416-2426, 2012."
1214,2-hexanol,CCCCC(C)O,318.1,0.003143666,2.77,0.442479769,0.791941369,0.36,21.68346535,12.90862759,15.30151264,20.01982463,12.99141976,29.8769901,"Diego Alonso Saldana, Laurie Starck, Pascal Mougin, Bernard Rousseau, Nicolas Ferrando, and Benoit Creton. Prediction of density and viscosity of biofuel compounds using machine learning methods. Energy & fuels, 26(4):2416-2426, 2012."
1215,2-hexanol,CCCCC(C)O,328.1,0.003047851,2.02,0.305351369,0.780713392,0.29,21.78552475,12.44528614,15.05186986,19.53138438,12.58488787,29.98887129,"Diego Alonso Saldana, Laurie Starck, Pascal Mougin, Bernard Rousseau, Nicolas Ferrando, and Benoit Creton. Prediction of density and viscosity of biofuel compounds using machine learning methods. Energy & fuels, 26(4):2416-2426, 2012."
1216,2-ethylhexaldehyde,CCCCC(C=O)CC,298.15,0.003354016,1.0527,0.022304623,0.814740051,0.11,21.86513861,6.274893668,16.52981214,17.68093448,12.35062545,30.05094059,"Sunghwan Kim, Paul A Thiessen, Tiejun Cheng, Jian Zhang, Asta Gindulyte, and Evan E Bolton. Pug-view: programmatic access to chemical annotations integrated in pubchem. Journal of cheminformatics, 11(1):1-11, 2019."
1217,2-ethyl-1-hexanol,CCCCC(CC)CO,293.15,0.003411223,9.8,0.991226076,0.829195575,0.12,21.31463366,12.47026468,15.82988679,20.1521531,15.82689207,28.88458416,"Sunghwan Kim, Paul A Thiessen, Tiejun Cheng, Jian Zhang, Asta Gindulyte, and Evan E Bolton. Pug-view: programmatic access to chemical annotations integrated in pubchem. Journal of cheminformatics, 11(1):1-11, 2019."
1218,2-ethyl-1-hexanol,CCCCC(CC)COC(=O)C(F)(F)C(F)(F)F,291.15,0.003434656,9.794899854,0.991,1.15106074,0.19,22.51188119,3.018607072,15.54519264,15.83582999,14.96285925,30.9119604,"Marina Cocchi, Pier Giuseppe De Benedetti, Renato Seeber, Lorenzo Tassi, and Alessandro Ulrici. Development of quantitative structure- property relationships using calculated descriptors for the prediction of the physicochemical properties of a series of organic solvents. Journal of chemical information and computer sciences, 39(6):1190-1203, 1999."
1219,di(2-ethylhexyl)adipate,CCCCC(CC)COC(=O)CCCCC(=O)OCC(CC)CCCC,291.3,0.003432887,14.72,1.16790781,0.937390934,0.04,21.31276238,3.862625357,17.21882861,17.6469768,30.00300256,26.93391089,"Diego Alonso Saldana, Laurie Starck, Pascal Mougin, Bernard Rousseau, Nicolas Ferrando, and Benoit Creton. Prediction of density and viscosity of biofuel compounds using machine learning methods. Energy & fuels, 26(4):2416-2426, 2012."
1220,Bis(2-ethylhexyl) adipate,CCCCC(CC)COC(=O)CCCCC(=O)OCC(CC)CCCC,293.15,0.003411223,13.7,1.136720567,0.919870632,0.05,21.45209901,3.765348949,16.7865717,17.20390183,29.08044282,27.82149505,"Sunghwan Kim, Paul A Thiessen, Tiejun Cheng, Jian Zhang, Asta Gindulyte, and Evan E Bolton. Pug-view: programmatic access to chemical annotations integrated in pubchem. Journal of cheminformatics, 11(1):1-11, 2019."
1221,di(2-ethylhexyl)adipate,CCCCC(CC)COC(=O)CCCCC(=O)OCC(CC)CCCC,298.1,0.003354579,11.32,1.053846427,0.924454201,0.05,21.40848515,3.746904439,16.89367588,17.30437314,29.281214,27.42936634,"Diego Alonso Saldana, Laurie Starck, Pascal Mougin, Bernard Rousseau, Nicolas Ferrando, and Benoit Creton. Prediction of density and viscosity of biofuel compounds using machine learning methods. Energy & fuels, 26(4):2416-2426, 2012."
1222,di(2-ethylhexyl)adipate,CCCCC(CC)COC(=O)CCCCC(=O)OCC(CC)CCCC,308.2,0.003244646,8.11,0.909020854,0.912192314,0.08,21.50882178,3.681461301,16.56781485,16.97219233,28.58138494,28.88456436,"Diego Alonso Saldana, Laurie Starck, Pascal Mougin, Bernard Rousseau, Nicolas Ferrando, and Benoit Creton. Prediction of density and viscosity of biofuel compounds using machine learning methods. Energy & fuels, 26(4):2416-2426, 2012."
1223,di(2-ethylhexyl)adipate,CCCCC(CC)COC(=O)CCCCC(=O)OCC(CC)CCCC,310.9,0.003216468,7.41,0.869818208,0.910435184,0.08,21.52669307,3.655470571,16.50894097,16.90908459,28.43271582,28.73239604,"Diego Alonso Saldana, Laurie Starck, Pascal Mougin, Bernard Rousseau, Nicolas Ferrando, and Benoit Creton. Prediction of density and viscosity of biofuel compounds using machine learning methods. Energy & fuels, 26(4):2416-2426, 2012."
1224,di(2-ethylhexyl)adipate,CCCCC(CC)COC(=O)CCCCC(=O)OCC(CC)CCCC,319.1,0.003133814,5.91,0.771587481,0.903514871,0.11,21.57733663,3.579728113,16.32512446,16.71321233,28.01650686,29.41079208,"Diego Alonso Saldana, Laurie Starck, Pascal Mougin, Bernard Rousseau, Nicolas Ferrando, and Benoit Creton. Prediction of density and viscosity of biofuel compounds using machine learning methods. Energy & fuels, 26(4):2416-2426, 2012."
1225,di(2-ethylhexyl)adipate,CCCCC(CC)COC(=O)CCCCC(=O)OCC(CC)CCCC,327.6,0.003052503,4.75,0.67669361,0.895865688,0.13,21.63787129,3.539418627,16.11298822,16.49740438,27.55851441,29.59085149,"Diego Alonso Saldana, Laurie Starck, Pascal Mougin, Bernard Rousseau, Nicolas Ferrando, and Benoit Creton. Prediction of density and viscosity of biofuel compounds using machine learning methods. Energy & fuels, 26(4):2416-2426, 2012."
1226,di(2-ethylhexyl)adipate,CCCCC(CC)COC(=O)CCCCC(=O)OCC(CC)CCCC,328.0,0.00304878,4.7,0.672097858,0.902411926,0.08,21.58725743,3.560111634,16.27148214,16.6566713,27.88248443,29.14991089,"Diego Alonso Saldana, Laurie Starck, Pascal Mougin, Bernard Rousseau, Nicolas Ferrando, and Benoit Creton. Prediction of density and viscosity of biofuel compounds using machine learning methods. Energy & fuels, 26(4):2416-2426, 2012."
1227,di(2-ethylhexyl)adipate,CCCCC(CC)COC(=O)CCCCC(=O)OCC(CC)CCCC,337.9,0.002959455,3.75,0.574031268,0.893036905,0.15,21.66122772,3.486647944,16.01245176,16.38798557,27.30739531,29.65107921,"Diego Alonso Saldana, Laurie Starck, Pascal Mougin, Bernard Rousseau, Nicolas Ferrando, and Benoit Creton. Prediction of density and viscosity of biofuel compounds using machine learning methods. Energy & fuels, 26(4):2416-2426, 2012."
1228,di(2-ethylhexyl)adipate,CCCCC(CC)COC(=O)CCCCC(=O)OCC(CC)CCCC,348.7,0.002867795,3.0,0.477121255,0.883549846,0.15,21.74564356,3.41563401,15.79197063,16.1574499,26.86273291,29.94066337,"Diego Alonso Saldana, Laurie Starck, Pascal Mougin, Bernard Rousseau, Nicolas Ferrando, and Benoit Creton. Prediction of density and viscosity of biofuel compounds using machine learning methods. Energy & fuels, 26(4):2416-2426, 2012."
1229,di(2-ethylhexyl)adipate,CCCCC(CC)COC(=O)CCCCC(=O)OCC(CC)CCCC,358.6,0.002788622,2.49,0.396199347,0.872196201,0.27,21.82328713,3.330985199,15.47038191,15.82516856,26.14390346,29.98976238,"Diego Alonso Saldana, Laurie Starck, Pascal Mougin, Bernard Rousseau, Nicolas Ferrando, and Benoit Creton. Prediction of density and viscosity of biofuel compounds using machine learning methods. Energy & fuels, 26(4):2416-2426, 2012."
1230,di(2-ethylhexyl)adipate,CCCCC(CC)COC(=O)CCCCC(=O)OCC(CC)CCCC,368.5,0.002713704,2.11,0.324282455,0.864841946,0.29,21.89044554,3.27418529,15.30076072,15.647489,25.80716633,30.14154455,"Diego Alonso Saldana, Laurie Starck, Pascal Mougin, Bernard Rousseau, Nicolas Ferrando, and Benoit Creton. Prediction of density and viscosity of biofuel compounds using machine learning methods. Energy & fuels, 26(4):2416-2426, 2012."
1231,di(2-ethylhexyl)adipate,CCCCC(CC)COC(=O)CCCCC(=O)OCC(CC)CCCC,372.0,0.002688172,2.04,0.309630167,0.861329778,0.29,21.92590099,3.257121926,15.19716404,15.54263179,25.5800706,30.31728713,"Diego Alonso Saldana, Laurie Starck, Pascal Mougin, Bernard Rousseau, Nicolas Ferrando, and Benoit Creton. Prediction of density and viscosity of biofuel compounds using machine learning methods. Energy & fuels, 26(4):2416-2426, 2012."
1232,di(2-ethylhexyl)adipate,CCCCC(CC)COC(=O)CCCCC(=O)OCC(CC)CCCC,394.3,0.00253614,1.42,0.152288344,0.853363907,0.28,21.98510891,3.177258885,14.95470396,15.28878126,25.04398394,30.31313861,"Diego Alonso Saldana, Laurie Starck, Pascal Mougin, Bernard Rousseau, Nicolas Ferrando, and Benoit Creton. Prediction of density and viscosity of biofuel compounds using machine learning methods. Energy & fuels, 26(4):2416-2426, 2012."
1233,decanedioic acid bis-(2-ethyl-hexyl) ester,CCCCC(CC)COC(=O)CCCCCCCCC(=O)OCC(CC)CCCC,298.15,0.003354016,19.5,1.290034611,0.911955126,0.05,21.33592079,3.339985059,16.87738079,17.20495392,33.69398583,27.06482178,"Valentin Goussard, Francois Duprat, Jean-Luc Ploix, G erard Dreyfus, Veronique Nardello-Rataj, and Jean-Marie Aubry. A new machine-learning tool for fast estimation of liquid viscosity. application to cosmetic oils. Journal of Chemical Information and Modeling, 60(4):2012-2023, 2020."
1234,Di(2-ethylhexyl) o-phthalate,CCCCC(CC)COC(=O)c1ccccc1C(=O)OCC(CC)CCCC,318.15,0.003143171,21.4,1.330413773,0.969377229,0.05,21.69169307,4.265648959,16.91081013,17.44070692,29.92341168,25.74776238,"A Dean John et al. Lange's handbook of chemistry. In Universitas Of Tennese Knoxville, Fifthenth Edition, Mc. Graw Hill Inc, New York. Conference, 1999."
1235,3-heptanol,CCCCC(O)CC,273.0,0.003663004,22.58,1.353723938,0.838904737,0.1,21.2569901,13.26115287,16.39824905,21.08968324,15.26760613,27.58385149,"Diego Alonso Saldana, Laurie Starck, Pascal Mougin, Bernard Rousseau, Nicolas Ferrando, and Benoit Creton. Prediction of density and viscosity of biofuel compounds using machine learning methods. Energy & fuels, 26(4):2416-2426, 2012."