Index,Name,CANON_SMILES,Temperature (K),Inverse temperature (1/K),Viscosity (cP),log(Viscosity),MD_density,MD_FV,MD_Rg,MD_SP_E,MD_SP_V,MD_SP,MD_HV,MD_RMSD,Reference
1346,Heptanoic acid,CCCCCCC(=O)O,303.15,0.003298697,3.4,0.531478917,0.923303868,0.06,21.6739505,14.49833672,17.40391298,22.65190761,17.89428107,29.77662376,"Sunghwan Kim, Paul A Thiessen, Tiejun Cheng, Jian Zhang, Asta Gindulyte, and Evan E Bolton. Pug-view: programmatic access to chemical annotations integrated in pubchem. Journal of cheminformatics, 11(1):1-11, 2019."
1347,heptylic acid,CCCCCCC(=O)O,343.15,0.002914177,1.61,0.206825876,0.887883482,0.19,21.95906931,13.61233469,16.55262872,21.43133285,16.7780104,30.2859802,"WE Wasburn. International critical tables of numerical data, physics, chemistry and technology. 1st electronic edition. Knovel: Norwich, NY, 2003."
1348,heptylic acid,CCCCCCC(=O)O,363.15,0.002753683,1.19,0.075546961,0.869753051,0.23,22.11556436,13.13523395,16.14244478,20.81176047,16.21697901,30.37032673,"WE Wasburn. International critical tables of numerical data, physics, chemistry and technology. 1st electronic edition. Knovel: Norwich, NY, 2003."
1349,Heptanoic acid,CCCCCCC(=O)O,393.15,0.002543558,0.82,-0.086186148,0.83948464,0.32,22.3739703,12.41557862,15.46766675,19.83478794,15.36348349,30.80538614,"Sunghwan Kim, Paul A Thiessen, Tiejun Cheng, Jian Zhang, Asta Gindulyte, and Evan E Bolton. Pug-view: programmatic access to chemical annotations integrated in pubchem. Journal of cheminformatics, 11(1):1-11, 2019."
1350,methyl heptanoate,CCCCCCC(=O)OC,298.15,0.003354016,1.0,0.0,0.881151176,0.11,21.86933663,5.181422013,17.06696948,17.83638485,13.03703676,30.0600396,"Valentin Goussard, Francois Duprat, Jean-Luc Ploix, G erard Dreyfus, Veronique Nardello-Rataj, and Jean-Marie Aubry. A new machine-learning tool for fast estimation of liquid viscosity. application to cosmetic oils. Journal of Chemical Information and Modeling, 60(4):2012-2023, 2020."
1351,heptanoic acid 1-methyl-heptyl ester,CCCCCCC(=O)OC(C)CCCCCC,298.15,0.003354016,3.1,0.491361694,0.860680574,0.04,21.54215842,2.777022372,16.64972959,16.87994607,19.7724116,29.49232673,"Valentin Goussard, Francois Duprat, Jean-Luc Ploix, G erard Dreyfus, Veronique Nardello-Rataj, and Jean-Marie Aubry. A new machine-learning tool for fast estimation of liquid viscosity. application to cosmetic oils. Journal of Chemical Information and Modeling, 60(4):2012-2023, 2020."
1352,octan-2-one,CCCCCCC(C)=O,298.15,0.003354016,0.95,-0.022276395,0.821139192,0.07,21.80494059,6.647170553,16.50486198,17.79328096,12.40771311,29.991,"Valentin Goussard, Francois Duprat, Jean-Luc Ploix, G erard Dreyfus, Veronique Nardello-Rataj, and Jean-Marie Aubry. A new machine-learning tool for fast estimation of liquid viscosity. application to cosmetic oils. Journal of Chemical Information and Modeling, 60(4):2012-2023, 2020."
1353,2-methyloctane,CCCCCCC(C)C,298.15,0.003354016,0.63,-0.200659451,0.71490955,0.21,21.7430099,0.584533411,15.13132518,15.14263935,10.42459474,29.91743564,"Valentin Goussard, Francois Duprat, Jean-Luc Ploix, G erard Dreyfus, Veronique Nardello-Rataj, and Jean-Marie Aubry. A new machine-learning tool for fast estimation of liquid viscosity. application to cosmetic oils. Journal of Chemical Information and Modeling, 60(4):2012-2023, 2020."
1354,"2,4,6-trimethyl-dodecane",CCCCCCC(C)CC(C)CC(C)C,298.15,0.003354016,2.3,0.361727836,0.774513944,0.14,21.35021782,0.585695952,15.46139381,15.47252087,16.28519213,29.12256436,"Valentin Goussard, Francois Duprat, Jean-Luc Ploix, G erard Dreyfus, Veronique Nardello-Rataj, and Jean-Marie Aubry. A new machine-learning tool for fast estimation of liquid viscosity. application to cosmetic oils. Journal of Chemical Information and Modeling, 60(4):2012-2023, 2020."
1355,Hexyl cyclo pentane,CCCCCCC1CCCC1,298.15,0.003354016,1.36,0.133538908,0.785692702,0.15,21.47367327,0.710127945,16.03365443,16.04940589,12.68258194,29.56810891,"Dabir S Viswanath, Tushar K Ghosh, Dasika HL Prasad, Nidamarty VK Dutt, Kalipatnapu Y Rani, Dabir S Viswanath, Tushar K Ghosh, Dasika HL Prasad, Nidamarty VK Dutt, and Kalipatnapu Y Rani. Correlations and estimation of pure liquid viscosity.Viscosity of Liquids: Theory, Estimation, Experiment, and Data, pages 135-405, 2007."
1356,n-Hexyl cyclo hexane,CCCCCCC1CCCCC1,298.15,0.003354016,1.99,0.298853076,0.800467614,0.11,21.34918812,0.672774703,16.17734357,16.19135552,13.76823483,29.20751485,"Dabir S Viswanath, Tushar K Ghosh, Dasika HL Prasad, Nidamarty VK Dutt, Kalipatnapu Y Rani, Dabir S Viswanath, Tushar K Ghosh, Dasika HL Prasad, Nidamarty VK Dutt, and Kalipatnapu Y Rani. Correlations and estimation of pure liquid viscosity.Viscosity of Liquids: Theory, Estimation, Experiment, and Data, pages 135-405, 2007."
1357,N-heptanal,CCCCCCC=O,303.15,0.003298697,0.791,-0.101823517,0.809872617,0.09,21.9990297,7.24309172,16.6160457,18.12632113,11.67457259,30.24264356,"Sunghwan Kim, Paul A Thiessen, Tiejun Cheng, Jian Zhang, Asta Gindulyte, and Evan E Bolton. Pug-view: programmatic access to chemical annotations integrated in pubchem. Journal of cheminformatics, 11(1):1-11, 2019."
1358,n-Heptyl bromide,CCCCCCCBr,293.15,0.003411223,1.29,0.11058971,1.151694747,0.12,22.39749505,4.437617974,16.9416002,17.51337046,11.98288648,30.78908911,"Dabir S Viswanath, Tushar K Ghosh, Dasika HL Prasad, Nidamarty VK Dutt, Kalipatnapu Y Rani, Dabir S Viswanath, Tushar K Ghosh, Dasika HL Prasad, Nidamarty VK Dutt, and Kalipatnapu Y Rani. Correlations and estimation of pure liquid viscosity.Viscosity of Liquids: Theory, Estimation, Experiment, and Data, pages 135-405, 2007."
1359,n-octane,CCCCCCCC,233.1,0.004290004,1.45,0.161368002,0.753276502,0.03,21.32552475,0.660754823,16.77633247,16.78936745,10.67985556,29.39321782,"Diego Alonso Saldana, Laurie Starck, Pascal Mougin, Bernard Rousseau, Nicolas Ferrando, and Benoit Creton. Prediction of density and viscosity of biofuel compounds using machine learning methods. Energy & fuels, 26(4):2416-2426, 2012."
1360,n-octane,CCCCCCCC,253.1,0.003951008,0.97,-0.013228266,0.735756458,0.11,21.49388119,0.635025548,16.22474167,16.23720085,10.28618034,29.52552475,"Diego Alonso Saldana, Laurie Starck, Pascal Mougin, Bernard Rousseau, Nicolas Ferrando, and Benoit Creton. Prediction of density and viscosity of biofuel compounds using machine learning methods. Energy & fuels, 26(4):2416-2426, 2012."
1361,n-octane,CCCCCCCC,273.1,0.003661662,0.71,-0.148741651,0.718844293,0.18,21.65678218,0.627077865,15.69905191,15.71159912,9.918331618,29.8550495,"Diego Alonso Saldana, Laurie Starck, Pascal Mougin, Bernard Rousseau, Nicolas Ferrando, and Benoit Creton. Prediction of density and viscosity of biofuel compounds using machine learning methods. Energy & fuels, 26(4):2416-2426, 2012."
1362,n-octane,CCCCCCCC,273.4,0.003657644,0.7,-0.15490196,0.714799125,0.14,21.69616832,0.616320101,15.59453202,15.60673709,9.846541563,29.81352475,"WE Wasburn. International critical tables of numerical data, physics, chemistry and technology. 1st electronic edition. Knovel: Norwich, NY, 2003."
1363,n-octane,CCCCCCCC,283.1,0.003532321,0.61,-0.214670165,0.706899114,0.25,21.77341584,0.602872107,15.34973126,15.3616007,9.67659073,29.98311881,"Diego Alonso Saldana, Laurie Starck, Pascal Mougin, Bernard Rousseau, Nicolas Ferrando, and Benoit Creton. Prediction of density and viscosity of biofuel compounds using machine learning methods. Energy & fuels, 26(4):2416-2426, 2012."
1364,n-octane,CCCCCCCC,285.33,0.003504714,0.594,-0.226213555,0.704566045,0.22,21.80181188,0.601639018,15.28816922,15.30005139,9.638078643,30.05721782,"WE Wasburn. International critical tables of numerical data, physics, chemistry and technology. 1st electronic edition. Knovel: Norwich, NY, 2003."
1365,n-octane,CCCCCCCC,293.1,0.003411805,0.54,-0.26760624,0.703488235,0.35,21.81957426,0.601436163,15.22943414,15.24133563,9.597831447,29.99511881,"Diego Alonso Saldana, Laurie Starck, Pascal Mougin, Bernard Rousseau, Nicolas Ferrando, and Benoit Creton. Prediction of density and viscosity of biofuel compounds using machine learning methods. Energy & fuels, 26(4):2416-2426, 2012."
1366,Octane,CCCCCCCC,293.15,0.003411223,0.546,-0.262807357,0.697393894,0.3,21.87375248,0.595289833,15.07380068,15.08558644,9.491804282,30.10962376,"A Dean John et al. Lange's handbook of chemistry. In Universitas Of Tennese Knoxville, Fifthenth Edition, Mc. Graw Hill Inc, New York. Conference, 1999."
1367,n-octane,CCCCCCCC,296.07,0.00337758,0.52,-0.283996656,0.699490189,0.29,21.85164356,0.590633252,15.1126409,15.12421399,9.516434568,30.09938614,"WE Wasburn. International critical tables of numerical data, physics, chemistry and technology. 1st electronic edition. Knovel: Norwich, NY, 2003."
1368,n-octane,CCCCCCCC,298.1,0.003354579,0.51,-0.292429824,0.691752843,0.41,21.94042574,0.585216046,14.90623349,14.91775184,9.375542233,30.22481188,"Diego Alonso Saldana, Laurie Starck, Pascal Mougin, Bernard Rousseau, Nicolas Ferrando, and Benoit Creton. Prediction of density and viscosity of biofuel compounds using machine learning methods. Energy & fuels, 26(4):2416-2426, 2012."
1369,n-octane,CCCCCCCC,303.1,0.003299241,0.48,-0.318758763,0.689525674,0.38,21.95780198,0.587529932,14.84784097,14.85949468,9.34515275,30.21025743,"Diego Alonso Saldana, Laurie Starck, Pascal Mougin, Bernard Rousseau, Nicolas Ferrando, and Benoit Creton. Prediction of density and viscosity of biofuel compounds using machine learning methods. Energy & fuels, 26(4):2416-2426, 2012."
1370,n-octane,CCCCCCCC,306.11,0.0032668,0.463,-0.334419009,0.688030559,0.47,21.98208911,0.584080435,14.79279246,14.80435297,9.305243875,30.22963366,"WE Wasburn. International critical tables of numerical data, physics, chemistry and technology. 1st electronic edition. Knovel: Norwich, NY, 2003."
1371,n-octane,CCCCCCCC,308.1,0.003245699,0.45,-0.346787486,0.686217628,0.44,22.00080198,0.582811643,14.73640799,14.7479657,9.265868478,30.20873267,"Diego Alonso Saldana, Laurie Starck, Pascal Mougin, Bernard Rousseau, Nicolas Ferrando, and Benoit Creton. Prediction of density and viscosity of biofuel compounds using machine learning methods. Energy & fuels, 26(4):2416-2426, 2012."
1372,n-octane,CCCCCCCC,313.1,0.003193868,0.43,-0.366531544,0.680962127,0.37,22.05722772,0.570719815,14.58663123,14.5978208,9.165919711,30.39337624,"Diego Alonso Saldana, Laurie Starck, Pascal Mougin, Bernard Rousseau, Nicolas Ferrando, and Benoit Creton. Prediction of density and viscosity of biofuel compounds using machine learning methods. Energy & fuels, 26(4):2416-2426, 2012."
1373,Octane,CCCCCCCC,313.15,0.003193358,0.433,-0.363512104,0.673063681,0.68,22.14030693,0.570625424,14.39102251,14.40236355,9.036374798,30.42125743,"A Dean John et al. Lange's handbook of chemistry. In Universitas Of Tennese Knoxville, Fifthenth Edition, Mc. Graw Hill Inc, New York. Conference, 1999."
1374,n-octane,CCCCCCCC,313.3,0.003191829,0.43,-0.366531544,0.676922251,0.37,22.09587129,0.565436108,14.48416794,14.49522842,9.09694561,30.30949505,"Diego Alonso Saldana, Laurie Starck, Pascal Mougin, Bernard Rousseau, Nicolas Ferrando, and Benoit Creton. Prediction of density and viscosity of biofuel compounds using machine learning methods. Energy & fuels, 26(4):2416-2426, 2012."
1375,n-octane,CCCCCCCC,317.04,0.003154176,0.411,-0.386158178,0.672879835,0.57,22.152,0.561732006,14.36825236,14.37927556,9.019438675,30.48446535,"WE Wasburn. International critical tables of numerical data, physics, chemistry and technology. 1st electronic edition. Knovel: Norwich, NY, 2003."
1376,n-octane,CCCCCCCC,327.88,0.003049896,0.367,-0.435333936,0.663698352,0.58,22.24876238,0.553444282,14.09846015,14.10935675,8.840719286,30.65672277,"WE Wasburn. International critical tables of numerical data, physics, chemistry and technology. 1st electronic edition. Knovel: Norwich, NY, 2003."
1377,Octane,CCCCCCCC,333.15,0.003001651,0.355,-0.449771647,0.661085178,0.75,22.26582178,0.546656972,14.02457194,14.03526707,8.797447802,30.6509901,"A Dean John et al. Lange's handbook of chemistry. In Universitas Of Tennese Knoxville, Fifthenth Edition, Mc. Graw Hill Inc, New York. Conference, 1999."
1378,n-octane,CCCCCCCC,333.2,0.0030012,0.35,-0.455931956,0.654634199,0.9,22.33940594,0.539906043,13.8632902,13.87384164,8.689817504,30.76744554,"Diego Alonso Saldana, Laurie Starck, Pascal Mougin, Bernard Rousseau, Nicolas Ferrando, and Benoit Creton. Prediction of density and viscosity of biofuel compounds using machine learning methods. Energy & fuels, 26(4):2416-2426, 2012."
1379,n-octane,CCCCCCCC,339.61,0.002944554,0.328,-0.484126156,0.657434726,0.96,22.31045545,0.548657037,13.91286208,13.92372194,8.725939375,30.66952475,"WE Wasburn. International critical tables of numerical data, physics, chemistry and technology. 1st electronic edition. Knovel: Norwich, NY, 2003."
1380,n-octane,CCCCCCCC,350.97,0.002849246,0.296,-0.528708289,0.648160331,0.77,22.42117822,0.529388751,13.65399258,13.66429634,8.562239179,30.85555446,"WE Wasburn. International critical tables of numerical data, physics, chemistry and technology. 1st electronic edition. Knovel: Norwich, NY, 2003."
1381,n-octane,CCCCCCCC,352.3,0.00283849,0.29,-0.537602002,0.642444006,1.03,22.4869505,0.531133346,13.5080451,13.51851209,8.466501172,30.90121782,"Diego Alonso Saldana, Laurie Starck, Pascal Mougin, Bernard Rousseau, Nicolas Ferrando, and Benoit Creton. Prediction of density and viscosity of biofuel compounds using machine learning methods. Energy & fuels, 26(4):2416-2426, 2012."
1382,n-octane,CCCCCCCC,361.48,0.002766405,0.269,-0.57024772,0.632633874,1.46,22.60052475,0.514080038,13.23955567,13.24957086,8.294474039,31.10354455,"WE Wasburn. International critical tables of numerical data, physics, chemistry and technology. 1st electronic edition. Knovel: Norwich, NY, 2003."
1383,n-octane,CCCCCCCC,369.9,0.002703433,0.25,-0.602059991,0.61847088,1.82,22.76709901,0.496975968,12.87267192,12.88230133,8.061028184,31.31261386,"Diego Alonso Saldana, Laurie Starck, Pascal Mougin, Bernard Rousseau, Nicolas Ferrando, and Benoit Creton. Prediction of density and viscosity of biofuel compounds using machine learning methods. Energy & fuels, 26(4):2416-2426, 2012."
1384,n-octane,CCCCCCCC,371.67,0.002690559,0.247,-0.607303047,0.621716237,1.29,22.72873267,0.495065646,12.94009948,12.94960778,8.102663629,31.20243564,"WE Wasburn. International critical tables of numerical data, physics, chemistry and technology. 1st electronic edition. Knovel: Norwich, NY, 2003."
1385,n-octane,CCCCCCCC,382.22,0.002616294,0.227,-0.643974143,0.609388768,1.74,22.87692079,0.48841498,12.62417183,12.63366474,7.910469432,31.42937624,"WE Wasburn. International critical tables of numerical data, physics, chemistry and technology. 1st electronic edition. Knovel: Norwich, NY, 2003."
1386,n-octane,CCCCCCCC,395.22,0.002530236,0.204,-0.690369833,0.595498777,2.43,23.04661386,0.474483377,12.25340732,12.26263474,7.67962942,31.57282178,"WE Wasburn. International critical tables of numerical data, physics, chemistry and technology. 1st electronic edition. Knovel: Norwich, NY, 2003."
1387,Octanenitrile,CCCCCCCC#N,288.15,0.003470415,1.811,0.25791845,0.792791103,0.12,22.21081188,8.285272254,15.65029107,17.70819947,12.40990267,30.60642574,"A Dean John et al. Lange's handbook of chemistry. In Universitas Of Tennese Knoxville, Fifthenth Edition, Mc. Graw Hill Inc, New York. Conference, 1999."
1388,Octanenitrile,CCCCCCCC#N,303.15,0.003298697,1.356,0.13225969,0.779601252,0.24,22.32728713,8.078005509,15.29491355,17.29719952,12.08770719,30.77555446,"A Dean John et al. Lange's handbook of chemistry. In Universitas Of Tennese Knoxville, Fifthenth Edition, Mc. Graw Hill Inc, New York. Conference, 1999."
1389,n-caprylic acid,CCCCCCCC(=O)O,343.15,0.002914177,1.84,0.264817823,0.87658405,0.15,21.91145545,12.8326699,16.41334973,20.83484665,17.75079402,30.17985149,"WE Wasburn. International critical tables of numerical data, physics, chemistry and technology. 1st electronic edition. Knovel: Norwich, NY, 2003."
1390,n-caprylic acid,CCCCCCCC(=O)O,363.15,0.002753683,1.3,0.113943352,0.863654808,0.28,22.0189901,12.42414528,16.1044218,20.34027006,17.23336295,30.34857426,"WE Wasburn. International critical tables of numerical data, physics, chemistry and technology. 1st electronic edition. Knovel: Norwich, NY, 2003."
1391,Methyl octanoate,CCCCCCCC(=O)OC,298.15,0.003354016,1.3,0.113943352,0.879309232,0.07,21.76281188,4.818525581,17.0844754,17.75121619,14.14568549,29.9429604,"Valentin Goussard, Francois Duprat, Jean-Luc Ploix, G erard Dreyfus, Veronique Nardello-Rataj, and Jean-Marie Aubry. A new machine-learning tool for fast estimation of liquid viscosity. application to cosmetic oils. Journal of Chemical Information and Modeling, 60(4):2012-2023, 2020."
1392,octanoic acid 1-methyl-heptyl ester,CCCCCCCC(=O)OC(C)CCCCCC,298.15,0.003354016,3.6,0.556302501,0.851498631,0.11,21.55324752,2.617141602,16.4532668,16.66032138,20.57083181,29.63832673,"Valentin Goussard, Francois Duprat, Jean-Luc Ploix, G erard Dreyfus, Veronique Nardello-Rataj, and Jean-Marie Aubry. A new machine-learning tool for fast estimation of liquid viscosity. application to cosmetic oils. Journal of Chemical Information and Modeling, 60(4):2012-2023, 2020."
1393,ethyl n-caprylate,CCCCCCCC(=O)OCC,303.15,0.003298697,0.94,-0.026872146,0.866444743,0.08,21.77008911,4.122083122,16.94209985,17.43652509,15.04990402,30.07275248,"WE Wasburn. International critical tables of numerical data, physics, chemistry and technology. 1st electronic edition. Knovel: Norwich, NY, 2003."
1394,tricaprylin,CCCCCCCC(=O)OCC(COC(=O)CCCCCCC)OC(=O)CCCCCCC,298.15,0.003354016,19.7,1.294466226,0.95496711,0.04,21.48439604,4.790275897,17.1842967,17.83972919,38.08415035,26.9200297,"Valentin Goussard, Francois Duprat, Jean-Luc Ploix, G erard Dreyfus, Veronique Nardello-Rataj, and Jean-Marie Aubry. A new machine-learning tool for fast estimation of liquid viscosity. application to cosmetic oils. Journal of Chemical Information and Modeling, 60(4):2012-2023, 2020."
1395,nonan-2-one,CCCCCCCC(C)=O,298.15,0.003354016,1.2,0.079181246,0.817642559,0.11,21.77890099,6.182801922,16.41780984,17.54359267,13.38953207,29.96054455,"Valentin Goussard, Francois Duprat, Jean-Luc Ploix, G erard Dreyfus, Veronique Nardello-Rataj, and Jean-Marie Aubry. A new machine-learning tool for fast estimation of liquid viscosity. application to cosmetic oils. Journal of Chemical Information and Modeling, 60(4):2012-2023, 2020."
1396,"2,4,6-trimethyl-tridecane",CCCCCCCC(C)CC(C)CC(C)C,298.15,0.003354016,2.8,0.447158031,0.780315821,0.08,21.27441584,0.602265999,15.59789481,15.60954972,17.49246001,29.20918812,"Valentin Goussard, Francois Duprat, Jean-Luc Ploix, G erard Dreyfus, Veronique Nardello-Rataj, and Jean-Marie Aubry. A new machine-learning tool for fast estimation of liquid viscosity. application to cosmetic oils. Journal of Chemical Information and Modeling, 60(4):2012-2023, 2020."
1397,n-Pentyl decyl cyclo hexane,CCCCCCCC(CCCCC)C1CCCCC1,303.15,0.003298697,8.91,0.949877704,0.821063999,0.07,21.17917822,0.674412393,16.03288625,16.04709371,20.57993055,27.55631683,"Dabir S Viswanath, Tushar K Ghosh, Dasika HL Prasad, Nidamarty VK Dutt, Kalipatnapu Y Rani, Dabir S Viswanath, Tushar K Ghosh, Dasika HL Prasad, Nidamarty VK Dutt, and Kalipatnapu Y Rani. Correlations and estimation of pure liquid viscosity.Viscosity of Liquids: Theory, Estimation, Experiment, and Data, pages 135-405, 2007."
1398,ethyl elaidate,CCCCCCCC/C=C/CCCCCCCC(=O)OCC,297.85,0.003357395,8.17,0.912222057,0.870309105,0.05,21.50044554,2.940435149,17.10513258,17.35628378,26.28049303,29.13426733,"WE Wasburn. International critical tables of numerical data, physics, chemistry and technology. 1st electronic edition. Knovel: Norwich, NY, 2003."