Index,Name,CANON_SMILES,Temperature (K),Inverse temperature (1/K),Viscosity (cP),log(Viscosity),MD_density,MD_FV,MD_Rg,MD_SP_E,MD_SP_V,MD_SP,MD_HV,MD_RMSD,Reference
1128,2-methylpentane,CCCC(C)C,273.76,0.003652835,0.3688,-0.433209088,0.678329695,0.34,21.92871287,0.554333845,14.94781032,14.95810932,7.337869192,30.2149505,"WE Wasburn. International critical tables of numerical data, physics, chemistry and technology. 1st electronic edition. Knovel: Norwich, NY, 2003."
1129,2-methylpentane,CCCC(C)C,278.74,0.003587573,0.3487,-0.457548053,0.669941342,0.34,22.02293069,0.545741885,14.70657173,14.71672269,7.212604571,30.3270495,"WE Wasburn. International critical tables of numerical data, physics, chemistry and technology. 1st electronic edition. Knovel: Norwich, NY, 2003."
1130,2-methylpentane,CCCC(C)C,283.4,0.003528582,0.3316,-0.479385478,0.666783564,0.58,22.05348515,0.541236883,14.62283497,14.63287883,7.177369857,30.4449505,"WE Wasburn. International critical tables of numerical data, physics, chemistry and technology. 1st electronic edition. Knovel: Norwich, NY, 2003."
1131,isohexane,CCCC(C)C,288.15,0.003470415,0.324,-0.48945499,0.661106877,0.36,22.12479208,0.529290614,14.46404788,14.47376036,7.099318172,30.43339604,"WE Wasburn. International critical tables of numerical data, physics, chemistry and technology. 1st electronic edition. Knovel: Norwich, NY, 2003."
1132,2-methylpentane,CCCC(C)C,288.41,0.003467286,0.3147,-0.502103257,0.658595547,0.48,22.14339604,0.523944449,14.39462993,14.40419067,7.061886427,30.50753465,"WE Wasburn. International critical tables of numerical data, physics, chemistry and technology. 1st electronic edition. Knovel: Norwich, NY, 2003."
1133,isohexane,CCCC(C)C,293.15,0.003411223,0.31,-0.508638306,0.655562421,0.52,22.17916832,0.524994085,14.30172434,14.31139302,7.017614512,30.50572277,"WE Wasburn. International critical tables of numerical data, physics, chemistry and technology. 1st electronic edition. Knovel: Norwich, NY, 2003."
1134,2-methylpentane,CCCC(C)C,293.66,0.003405299,0.2987,-0.524764777,0.662991978,0.33,22.10083168,0.532502393,14.48066331,14.49048037,7.106750281,30.40585149,"WE Wasburn. International critical tables of numerical data, physics, chemistry and technology. 1st electronic edition. Knovel: Norwich, NY, 2003."
1135,2-methylpentane,CCCC(C)C,298.6,0.003348962,0.2841,-0.546528766,0.655360717,0.64,22.18066337,0.522204373,14.27637181,14.28594801,7.007565846,30.58105941,"WE Wasburn. International critical tables of numerical data, physics, chemistry and technology. 1st electronic edition. Knovel: Norwich, NY, 2003."
1136,isohexane,CCCC(C)C,303.15,0.003298697,0.28,-0.552841969,0.63746685,0.93,22.39286139,0.501056045,13.81383497,13.82295163,6.77614284,30.811,"WE Wasburn. International critical tables of numerical data, physics, chemistry and technology. 1st electronic edition. Knovel: Norwich, NY, 2003."
1137,2-methylpentane,CCCC(C)C,305.12,0.003277399,0.267,-0.573488739,0.651354364,0.6,22.22276238,0.520635001,14.15173082,14.16133399,6.947871079,30.6069901,"WE Wasburn. International critical tables of numerical data, physics, chemistry and technology. 1st electronic edition. Knovel: Norwich, NY, 2003."
1138,2-methylpentane,CCCC(C)C,309.78,0.003228097,0.255,-0.59345982,0.641348764,0.73,22.35257426,0.506335634,13.89294352,13.90220623,6.822534234,30.76572277,"WE Wasburn. International critical tables of numerical data, physics, chemistry and technology. 1st electronic edition. Knovel: Norwich, NY, 2003."
1139,2-methylpentane,CCCC(C)C,314.22,0.003182484,0.245,-0.610833916,0.635914705,0.82,22.40915842,0.496433087,13.73910357,13.74810819,6.746390813,30.97842574,"WE Wasburn. International critical tables of numerical data, physics, chemistry and technology. 1st electronic edition. Knovel: Norwich, NY, 2003."
1140,2-methylpentane,CCCC(C)C,318.53,0.003139422,0.2355,-0.628009089,0.637567052,0.73,22.39048515,0.499856332,13.76138213,13.77049821,6.758991042,30.84351485,"WE Wasburn. International critical tables of numerical data, physics, chemistry and technology. 1st electronic edition. Knovel: Norwich, NY, 2003."
1141,2-methylpentane,CCCC(C)C,324.32,0.003083374,0.2235,-0.650722473,0.626839535,0.75,22.50719802,0.490498062,13.48391458,13.49286546,6.626629594,31.01665347,"WE Wasburn. International critical tables of numerical data, physics, chemistry and technology. 1st electronic edition. Knovel: Norwich, NY, 2003."
1142,2-methylpentane,CCCC(C)C,328.58,0.003043399,0.2151,-0.66735959,0.617294785,1.01,22.61791089,0.48107679,13.23289886,13.24166932,6.503509779,31.17723762,"WE Wasburn. International critical tables of numerical data, physics, chemistry and technology. 1st electronic edition. Knovel: Norwich, NY, 2003."
1143,methylpropylacetic acid,CCCC(C)C(=O)O,293.15,0.003411223,2.867,0.457427693,0.943051829,0.08,21.703,15.53194208,17.33114152,23.27275171,16.52755896,29.46164356,"WE Wasburn. International critical tables of numerical data, physics, chemistry and technology. 1st electronic edition. Knovel: Norwich, NY, 2003."
1144,2-methylpentaldehyde,CCCC(C)C=O,293.15,0.003411223,0.56,-0.251811973,0.811417643,0.09,22.11742574,7.558914351,16.74141154,18.36895305,10.53732152,30.48415842,"Sunghwan Kim, Paul A Thiessen, Tiejun Cheng, Jian Zhang, Asta Gindulyte, and Evan E Bolton. Pug-view: programmatic access to chemical annotations integrated in pubchem. Journal of cheminformatics, 11(1):1-11, 2019."
1145,3-Methylhexane,CCCC(C)CC,293.15,0.003411223,0.372,-0.42945706,0.679946621,0.48,22.00606931,0.532796241,14.53931914,14.54911374,8.038343382,30.31247525,"A Dean John et al. Lange's handbook of chemistry. In Universitas Of Tennese Knoxville, Fifthenth Edition, Mc. Graw Hill Inc, New York. Conference, 1999."
1146,3-Methylhexane,CCCC(C)CC,298.15,0.003354016,0.35,-0.455931956,0.682677257,0.4,21.96278218,0.528880609,14.59978033,14.60938673,8.080116735,30.14589109,"A Dean John et al. Lange's handbook of chemistry. In Universitas Of Tennese Knoxville, Fifthenth Edition, Mc. Graw Hill Inc, New York. Conference, 1999."
1147,"2,2,4-trimethyl-heptane",CCCC(C)CC(C)(C)C,298.15,0.003354016,0.52,-0.283996656,0.742880139,0.2,21.49316832,0.514698843,14.9418954,14.95078646,10.82490716,29.43728713,"Valentin Goussard, Francois Duprat, Jean-Luc Ploix, G erard Dreyfus, Veronique Nardello-Rataj, and Jean-Marie Aubry. A new machine-learning tool for fast estimation of liquid viscosity. application to cosmetic oils. Journal of Chemical Information and Modeling, 60(4):2012-2023, 2020."
1148,"2,4,6-trimethyl-octane",CCCC(C)CC(C)CC(C)C,298.15,0.003354016,1.1,0.041392685,0.755733684,0.2,21.45277228,0.557679956,15.14198887,15.15228312,12.96080902,29.46462376,"Valentin Goussard, Francois Duprat, Jean-Luc Ploix, G erard Dreyfus, Veronique Nardello-Rataj, and Jean-Marie Aubry. A new machine-learning tool for fast estimation of liquid viscosity. application to cosmetic oils. Journal of Chemical Information and Modeling, 60(4):2012-2023, 2020."
1149,2-Pentanol,CCCC(C)O,288.15,0.003470415,5.13,0.710117365,0.817635543,0.12,21.51162376,15.18584427,15.76022283,21.88633895,12.91555851,29.69673267,"A Dean John et al. Lange's handbook of chemistry. In Universitas Of Tennese Knoxville, Fifthenth Edition, Mc. Graw Hill Inc, New York. Conference, 1999."
1150,2-Pentanol,CCCC(C)O,303.15,0.003298697,2.78,0.444044796,0.810266256,0.14,21.5829505,14.68264159,15.61971943,21.43768224,12.55222996,29.74291089,"A Dean John et al. Lange's handbook of chemistry. In Universitas Of Tennese Knoxville, Fifthenth Edition, Mc. Graw Hill Inc, New York. Conference, 1999."
1151,3-ethylhexane,CCCC(CC)CC,298.15,0.003354016,0.42,-0.37675071,0.701211861,0.35,21.83567327,0.532934803,14.67542125,14.68512938,8.989050326,29.97409901,"Valentin Goussard, Francois Duprat, Jean-Luc Ploix, G erard Dreyfus, Veronique Nardello-Rataj, and Jean-Marie Aubry. A new machine-learning tool for fast estimation of liquid viscosity. application to cosmetic oils. Journal of Chemical Information and Modeling, 60(4):2012-2023, 2020."
1152,dipropylacetic acid,CCCC(CCC)C(=O)O,293.15,0.003411223,7.642,0.883207033,0.928894091,0.04,21.48351485,13.83240731,17.13836266,22.02432568,18.58182332,26.67585149,"WE Wasburn. International critical tables of numerical data, physics, chemistry and technology. 1st electronic edition. Knovel: Norwich, NY, 2003."
1153,3-hexanol,CCCC(O)CC,273.1,0.003661662,21.41,1.330616667,0.84066796,0.09,21.26328713,14.19681543,16.38489952,21.68028668,14.19698863,28.66411881,"Diego Alonso Saldana, Laurie Starck, Pascal Mougin, Bernard Rousseau, Nicolas Ferrando, and Benoit Creton. Prediction of density and viscosity of biofuel compounds using machine learning methods. Energy & fuels, 26(4):2416-2426, 2012."
1154,3-hexanol,CCCC(O)CC,278.1,0.003595829,17.01,1.230704314,0.834990391,0.06,21.30587129,13.98967816,16.26462777,21.45398248,14.01428404,28.8700495,"Diego Alonso Saldana, Laurie Starck, Pascal Mougin, Bernard Rousseau, Nicolas Ferrando, and Benoit Creton. Prediction of density and viscosity of biofuel compounds using machine learning methods. Energy & fuels, 26(4):2416-2426, 2012."
1155,3-hexanol,CCCC(O)CC,288.1,0.003471017,8.73,0.941014244,0.824029986,0.09,21.40683168,13.46308947,16.0346787,20.93772361,13.5647108,29.48520792,"Diego Alonso Saldana, Laurie Starck, Pascal Mougin, Bernard Rousseau, Nicolas Ferrando, and Benoit Creton. Prediction of density and viscosity of biofuel compounds using machine learning methods. Energy & fuels, 26(4):2416-2426, 2012."
1156,3-hexanol,CCCC(O)CC,298.1,0.003354579,4.81,0.682145076,0.807858431,0.13,21.55248515,12.96089679,15.67544473,20.34022863,13.0990473,29.55538614,"Diego Alonso Saldana, Laurie Starck, Pascal Mougin, Bernard Rousseau, Nicolas Ferrando, and Benoit Creton. Prediction of density and viscosity of biofuel compounds using machine learning methods. Energy & fuels, 26(4):2416-2426, 2012."
1157,3-hexanol,CCCC(O)CC,308.1,0.003245699,3.04,0.482873584,0.801003959,0.24,21.60647525,12.53182953,15.53420574,19.95945648,12.75815334,29.77115842,"Diego Alonso Saldana, Laurie Starck, Pascal Mougin, Bernard Rousseau, Nicolas Ferrando, and Benoit Creton. Prediction of density and viscosity of biofuel compounds using machine learning methods. Energy & fuels, 26(4):2416-2426, 2012."
1158,3-hexanol,CCCC(O)CC,318.1,0.003143666,2.04,0.309630167,0.786624099,0.27,21.72992079,11.97774355,15.2499891,19.3921514,12.30705043,29.97139604,"Diego Alonso Saldana, Laurie Starck, Pascal Mougin, Bernard Rousseau, Nicolas Ferrando, and Benoit Creton. Prediction of density and viscosity of biofuel compounds using machine learning methods. Energy & fuels, 26(4):2416-2426, 2012."
1159,3-hexanol,CCCC(O)CC,328.1,0.003047851,1.45,0.161368002,0.775066963,0.32,21.83249505,11.46267498,14.98885626,18.87037988,11.87201212,30.07315842,"Diego Alonso Saldana, Laurie Starck, Pascal Mougin, Bernard Rousseau, Nicolas Ferrando, and Benoit Creton. Prediction of density and viscosity of biofuel compounds using machine learning methods. Energy & fuels, 26(4):2416-2426, 2012."
1160,3-hexanol,CCCC(O)CC,338.1,0.002957705,1.08,0.033423755,0.766286616,0.39,21.92323762,11.02475085,14.80757064,18.46167918,11.53414564,30.23675248,"Diego Alonso Saldana, Laurie Starck, Pascal Mougin, Bernard Rousseau, Nicolas Ferrando, and Benoit Creton. Prediction of density and viscosity of biofuel compounds using machine learning methods. Energy & fuels, 26(4):2416-2426, 2012."
1161,3-hexanol,CCCC(O)CC,348.1,0.002872738,0.84,-0.075720714,0.754574687,0.54,22.03885149,10.54627673,14.55113116,17.97206222,11.14542263,30.33560396,"Diego Alonso Saldana, Laurie Starck, Pascal Mougin, Bernard Rousseau, Nicolas Ferrando, and Benoit Creton. Prediction of density and viscosity of biofuel compounds using machine learning methods. Energy & fuels, 26(4):2416-2426, 2012."
1162,3-hexanol,CCCC(O)CC,358.1,0.002792516,0.67,-0.173925197,0.745345073,0.55,22.13523762,10.09646208,14.36333628,17.55771592,10.81234816,30.52771287,"Diego Alonso Saldana, Laurie Starck, Pascal Mougin, Bernard Rousseau, Nicolas Ferrando, and Benoit Creton. Prediction of density and viscosity of biofuel compounds using machine learning methods. Energy & fuels, 26(4):2416-2426, 2012."
1163,3-hexanol,CCCC(O)CC,368.1,0.002716653,0.55,-0.259637311,0.740857873,0.61,22.16956436,9.70555924,14.26681802,17.25622284,10.54741234,30.58588119,"Diego Alonso Saldana, Laurie Starck, Pascal Mougin, Bernard Rousseau, Nicolas Ferrando, and Benoit Creton. Prediction of density and viscosity of biofuel compounds using machine learning methods. Energy & fuels, 26(4):2416-2426, 2012."
1164,3-hexanol,CCCC(O)CC,378.1,0.002644803,0.46,-0.337242168,0.710424051,1.04,22.48785149,9.056545465,13.60845913,16.34799615,9.938752652,30.96906931,"Diego Alonso Saldana, Laurie Starck, Pascal Mougin, Bernard Rousseau, Nicolas Ferrando, and Benoit Creton. Prediction of density and viscosity of biofuel compounds using machine learning methods. Energy & fuels, 26(4):2416-2426, 2012."
1165,3-hexanol,CCCC(O)CC,388.1,0.002576656,0.39,-0.408935393,0.701331941,1.33,22.58091089,8.675186394,13.40420804,15.96774882,9.649760682,31.0650198,"Diego Alonso Saldana, Laurie Starck, Pascal Mougin, Bernard Rousseau, Nicolas Ferrando, and Benoit Creton. Prediction of density and viscosity of biofuel compounds using machine learning methods. Energy & fuels, 26(4):2416-2426, 2012."
1166,3-hexanol,CCCC(O)CC,398.1,0.002511932,0.34,-0.468521083,0.692253386,1.51,22.68950495,8.324538566,13.19140081,15.59936961,9.375750518,31.14108911,"Diego Alonso Saldana, Laurie Starck, Pascal Mougin, Bernard Rousseau, Nicolas Ferrando, and Benoit Creton. Prediction of density and viscosity of biofuel compounds using machine learning methods. Energy & fuels, 26(4):2416-2426, 2012."
1167,n-propylcyclohexane,CCCC1CCCCC1,273.1,0.003661662,1.41,0.149219113,0.804413578,0.09,21.30186139,0.690355245,16.50766306,16.52212449,10.78190521,29.21061386,"Diego Alonso Saldana, Laurie Starck, Pascal Mougin, Bernard Rousseau, Nicolas Ferrando, and Benoit Creton. Prediction of density and viscosity of biofuel compounds using machine learning methods. Energy & fuels, 26(4):2416-2426, 2012."
1168,n-propylcyclohexane,CCCC1CCCCC1,293.1,0.003411805,1.01,0.004321374,0.786751218,0.23,21.46561386,0.663503182,16.00794069,16.02171713,10.42697943,29.39909901,"Diego Alonso Saldana, Laurie Starck, Pascal Mougin, Bernard Rousseau, Nicolas Ferrando, and Benoit Creton. Prediction of density and viscosity of biofuel compounds using machine learning methods. Energy & fuels, 26(4):2416-2426, 2012."
1169,n-propylcyclohexane,CCCC1CCCCC1,313.1,0.003193868,0.76,-0.119186408,0.76683647,0.29,21.64974257,0.632359347,15.4633515,15.47629909,10.0464261,29.66664356,"Diego Alonso Saldana, Laurie Starck, Pascal Mougin, Bernard Rousseau, Nicolas Ferrando, and Benoit Creton. Prediction of density and viscosity of biofuel compounds using machine learning methods. Energy & fuels, 26(4):2416-2426, 2012."
1170,2-Nitro-2-hexene,CCCC=C(C)[N+](=O)[O-],303.15,0.003298697,1.14,0.056904851,0.967553047,0.08,22.29057426,8.459988839,18.10237029,19.98175417,13.34108991,30.78118812,"Dabir S Viswanath, Tushar K Ghosh, Dasika HL Prasad, Nidamarty VK Dutt, Kalipatnapu Y Rani, Dabir S Viswanath, Tushar K Ghosh, Dasika HL Prasad, Nidamarty VK Dutt, and Kalipatnapu Y Rani. Correlations and estimation of pure liquid viscosity.Viscosity of Liquids: Theory, Estimation, Experiment, and Data, pages 135-405, 2007."
1171,Butyraldehyde,CCCC=O,293.15,0.003411223,0.45,-0.346787486,0.801577034,0.15,22.57021782,9.783177254,16.75737522,19.40423964,8.677862132,31.14621782,"Sunghwan Kim, Paul A Thiessen, Tiejun Cheng, Jian Zhang, Asta Gindulyte, and Evan E Bolton. Pug-view: programmatic access to chemical annotations integrated in pubchem. Journal of cheminformatics, 11(1):1-11, 2019."
1172,n-pentane,CCCCC,253.3,0.003947888,0.34,-0.468521083,0.661770035,0.24,22.00354455,0.585665741,15.22562041,15.23692549,6.553086219,30.32668317,"Diego Alonso Saldana, Laurie Starck, Pascal Mougin, Bernard Rousseau, Nicolas Ferrando, and Benoit Creton. Prediction of density and viscosity of biofuel compounds using machine learning methods. Energy & fuels, 26(4):2416-2426, 2012."
1173,n-pentane,CCCCC,273.1,0.003661662,0.27,-0.568636236,0.644642335,0.31,22.19985149,0.566409357,14.70244231,14.71338805,6.333731802,30.61812871,"Diego Alonso Saldana, Laurie Starck, Pascal Mougin, Bernard Rousseau, Nicolas Ferrando, and Benoit Creton. Prediction of density and viscosity of biofuel compounds using machine learning methods. Energy & fuels, 26(4):2416-2426, 2012."
1174,n-pentane,CCCCC,273.89,0.003651101,0.2805,-0.552067134,0.639119708,0.35,22.26741584,0.56028245,14.55079955,14.5616185,6.265463583,30.83521782,"WE Wasburn. International critical tables of numerical data, physics, chemistry and technology. 1st electronic edition. Knovel: Norwich, NY, 2003."
1175,n-pentane,CCCCC,280.62,0.003563538,0.262,-0.581698709,0.63637812,0.51,22.29276238,0.554405782,14.4598976,14.47055038,6.231836074,30.76229703,"WE Wasburn. International critical tables of numerical data, physics, chemistry and technology. 1st electronic edition. Knovel: Norwich, NY, 2003."
1176,n-pentane,CCCCC,286.31,0.003492718,0.2481,-0.605373236,0.623414671,0.62,22.44770297,0.531625211,14.10740698,14.1174554,6.081918207,30.95187129,"WE Wasburn. International critical tables of numerical data, physics, chemistry and technology. 1st electronic edition. Knovel: Norwich, NY, 2003."
1177,n-pentane,CCCCC,292.06,0.003423954,0.2351,-0.628747371,0.62455693,0.58,22.42949505,0.538866791,14.11459868,14.12491665,6.08908006,30.82874257,"WE Wasburn. International critical tables of numerical data, physics, chemistry and technology. 1st electronic edition. Knovel: Norwich, NY, 2003."
1178,n-pentane,CCCCC,293.1,0.003411805,0.23,-0.638272164,0.614119522,0.78,22.57134653,0.529930251,13.84652435,13.85669464,5.974015015,31.11217822,"Diego Alonso Saldana, Laurie Starck, Pascal Mougin, Bernard Rousseau, Nicolas Ferrando, and Benoit Creton. Prediction of density and viscosity of biofuel compounds using machine learning methods. Energy & fuels, 26(4):2416-2426, 2012."
1179,n-pentane,CCCCC,299.45,0.003339456,0.2192,-0.65915945,0.601023419,1.25,22.72635644,0.509008299,13.49168882,13.50131629,5.825177025,31.22320792,"WE Wasburn. International critical tables of numerical data, physics, chemistry and technology. 1st electronic edition. Knovel: Norwich, NY, 2003."
1180,n-pentane,CCCCC,303.56,0.003294242,0.211,-0.675717545,0.603012509,1.25,22.69856436,0.509196668,13.53034243,13.53996494,5.845977548,31.29389109,"WE Wasburn. International critical tables of numerical data, physics, chemistry and technology. 1st electronic edition. Knovel: Norwich, NY, 2003."
1181,n-pentane,CCCCC,305.81,0.003270004,0.207,-0.684029655,0.601636274,1.13,22.71617822,0.508540577,13.49160784,13.50122635,5.832415199,31.26738614,"WE Wasburn. International critical tables of numerical data, physics, chemistry and technology. 1st electronic edition. Knovel: Norwich, NY, 2003."
1182,Pentanenitrile,CCCCC#N,288.15,0.003470415,0.779,-0.108462542,0.769715554,0.18,22.87543564,10.50818626,15.13072993,18.42185283,9.332925292,31.62832673,"A Dean John et al. Lange's handbook of chemistry. In Universitas Of Tennese Knoxville, Fifthenth Edition, Mc. Graw Hill Inc, New York. Conference, 1999."
1183,valeronitrile,CCCCC#N,298.15,0.003354016,0.691830971,-0.16,0.753576845,0.39,23.03251485,10.27087614,14.7365931,17.96277367,9.099988984,31.7379802,"Gregory W Kau man and Peter C Jurs. Prediction of surface tension, viscosity, and thermal conductivity for common organic solvents using quantitative structure- property relationships. Journal of chemical information and computer sciences, 41(2):408-418, 2001."