Index,Name,CANON_SMILES,Temperature (K),Inverse temperature (1/K),Viscosity (cP),log(Viscosity),MD_density,MD_FV,MD_Rg,MD_SP_E,MD_SP_V,MD_SP,MD_HV,MD_RMSD,Reference
2053,n-propyl formate,CCCOC=O,340.28,0.002938756,0.3136,-0.503623946,0.841665198,0.36,23.1660495,5.817731324,16.01537042,17.03947706,7.94041177,31.94219802,"WE Wasburn. International critical tables of numerical data, physics, chemistry and technology. 1st electronic edition. Knovel: Norwich, NY, 2003."
2054,propyl methanoate,CCCOC=O,340.3,0.002938584,0.31,-0.508638306,0.842739144,0.44,23.15652475,5.793815977,16.03472656,17.0495472,7.939781972,32.01559406,"Diego Alonso Saldana, Laurie Starck, Pascal Mougin, Bernard Rousseau, Nicolas Ferrando, and Benoit Creton. Prediction of density and viscosity of biofuel compounds using machine learning methods. Energy & fuels, 26(4):2416-2426, 2012."
2055,propyl methanoate,CCCOC=O,343.1,0.002914602,0.31,-0.508638306,0.845087946,0.37,23.13365347,5.789063136,16.07857378,17.0891785,7.958867444,31.9980495,"Diego Alonso Saldana, Laurie Starck, Pascal Mougin, Bernard Rousseau, Nicolas Ferrando, and Benoit Creton. Prediction of density and viscosity of biofuel compounds using machine learning methods. Energy & fuels, 26(4):2416-2426, 2012."
2056,propyl methanoate,CCCOC=O,348.1,0.002872738,0.29,-0.537602002,0.831954358,0.49,23.255,5.710421324,15.78940815,16.79049427,7.82754827,32.09769307,"Diego Alonso Saldana, Laurie Starck, Pascal Mougin, Bernard Rousseau, Nicolas Ferrando, and Benoit Creton. Prediction of density and viscosity of biofuel compounds using machine learning methods. Energy & fuels, 26(4):2416-2426, 2012."
2057,n-propyl formate,CCCOC=O,348.13,0.00287249,0.2928,-0.533428928,0.826107479,0.66,23.30788119,5.633270684,15.66465666,16.6470288,7.75584627,32.21230693,"WE Wasburn. International critical tables of numerical data, physics, chemistry and technology. 1st electronic edition. Knovel: Norwich, NY, 2003."
2058,propyl methanoate,CCCOC=O,353.1,0.002832059,0.29,-0.537602002,0.828511703,0.44,23.28438614,5.625057998,15.69944157,16.67693327,7.770561308,32.16083168,"Diego Alonso Saldana, Laurie Starck, Pascal Mougin, Bernard Rousseau, Nicolas Ferrando, and Benoit Creton. Prediction of density and viscosity of biofuel compounds using machine learning methods. Energy & fuels, 26(4):2416-2426, 2012."
2059,Ethyl propyl ether,CCCOCC,273.15,0.003660992,0.401,-0.396855627,0.746861504,0.2,22.17364356,4.141443489,15.58135188,16.12249532,7.875353025,30.6379505,"A Dean John et al. Lange's handbook of chemistry. In Universitas Of Tennese Knoxville, Fifthenth Edition, Mc. Graw Hill Inc, New York. Conference, 1999."
2060,ethyl propyl ether,CCCOCC,273.5,0.003656307,0.3952,-0.403183064,0.745738618,0.24,22.17865347,4.124865674,15.54733832,16.0853804,7.853321391,30.62071287,"WE Wasburn. International critical tables of numerical data, physics, chemistry and technology. 1st electronic edition. Knovel: Norwich, NY, 2003."
2061,ethyl propyl ether,CCCOCC,278.8,0.003586801,0.3714,-0.430158101,0.74896507,0.2,22.14570297,4.131094499,15.59849768,16.13646503,7.878669731,30.54776238,"WE Wasburn. International critical tables of numerical data, physics, chemistry and technology. 1st electronic edition. Knovel: Norwich, NY, 2003."
2062,ethyl propyl ether,CCCOCC,283.8,0.003523608,0.351,-0.454692884,0.746953831,0.28,22.17784158,4.087732546,15.53412534,16.06318143,7.841788016,30.5929505,"WE Wasburn. International critical tables of numerical data, physics, chemistry and technology. 1st electronic edition. Knovel: Norwich, NY, 2003."
2063,ethyl propyl ether,CCCOCC,288.81,0.003462484,0.3324,-0.478338985,0.737205287,0.32,22.2620198,4.010676166,15.29113872,15.80855417,7.716031929,30.72691089,"WE Wasburn. International critical tables of numerical data, physics, chemistry and technology. 1st electronic edition. Knovel: Norwich, NY, 2003."
2064,ethyl propyl ether,CCCOCC,293.47,0.003407503,0.3165,-0.499626286,0.727721146,0.42,22.36950495,3.912599239,15.04828968,15.54887003,7.58263863,30.84762376,"WE Wasburn. International critical tables of numerical data, physics, chemistry and technology. 1st electronic edition. Knovel: Norwich, NY, 2003."
2065,Ethyl propyl ether,CCCOCC,298.15,0.003354016,0.3,-0.522878745,0.713004371,0.53,22.51737624,3.796941347,14.68827661,15.17133768,7.393704018,31.05763366,"Valentin Goussard, Francois Duprat, Jean-Luc Ploix, G erard Dreyfus, Veronique Nardello-Rataj, and Jean-Marie Aubry. A new machine-learning tool for fast estimation of liquid viscosity. application to cosmetic oils. Journal of Chemical Information and Modeling, 60(4):2012-2023, 2020."
2066,ethyl propyl ether,CCCOCC,298.49,0.003350196,0.3006,-0.522011024,0.728629129,0.33,22.35536634,3.897816864,15.04141899,15.53844683,7.574514627,30.87246535,"WE Wasburn. International critical tables of numerical data, physics, chemistry and technology. 1st electronic edition. Knovel: Norwich, NY, 2003."
2067,ethyl propyl ether,CCCOCC,303.23,0.003297827,0.2864,-0.543026986,0.716096094,0.46,22.47488119,3.814765069,14.739526,15.2254174,7.422813209,31.03424752,"WE Wasburn. International critical tables of numerical data, physics, chemistry and technology. 1st electronic edition. Knovel: Norwich, NY, 2003."
2068,ethyl propyl ether,CCCOCC,308.23,0.003244331,0.2727,-0.564314862,0.715127741,0.45,22.49263366,3.776593195,14.70077173,15.17837594,7.399837481,31.07328713,"WE Wasburn. International critical tables of numerical data, physics, chemistry and technology. 1st electronic edition. Knovel: Norwich, NY, 2003."
2069,ethyl propyl ether,CCCOCC,313.13,0.003193562,0.2598,-0.585360853,0.706323494,0.62,22.58812871,3.709875515,14.47696686,14.9449377,7.284436252,31.1939505,"WE Wasburn. International critical tables of numerical data, physics, chemistry and technology. 1st electronic edition. Knovel: Norwich, NY, 2003."
2070,ethyl propyl ether,CCCOCC,318.77,0.003137058,0.2466,-0.608006928,0.698468261,0.9,22.68392079,3.635520279,14.27521159,14.73112676,7.179187188,31.33060396,"WE Wasburn. International critical tables of numerical data, physics, chemistry and technology. 1st electronic edition. Knovel: Norwich, NY, 2003."
2071,ethyl propyl ether,CCCOCC,323.45,0.003091668,0.2363,-0.626536278,0.696784481,0.82,22.68961386,3.611018607,14.21994029,14.67143964,7.151215123,31.24778218,"WE Wasburn. International critical tables of numerical data, physics, chemistry and technology. 1st electronic edition. Knovel: Norwich, NY, 2003."
2072,ethyl propyl ether,CCCOCC,328.15,0.003047387,0.2264,-0.645123578,0.686893029,0.95,22.79467327,3.518080991,13.97902273,14.41513164,7.025648396,31.41522772,"WE Wasburn. International critical tables of numerical data, physics, chemistry and technology. 1st electronic edition. Knovel: Norwich, NY, 2003."
2073,Ethyl propyl ether,CCCOCC,333.15,0.003001651,0.225,-0.647817482,0.681493095,1.15,22.8580099,3.485389254,13.83713944,14.2695984,6.957007183,31.61588119,"A Dean John et al. Lange's handbook of chemistry. In Universitas Of Tennese Knoxville, Fifthenth Edition, Mc. Graw Hill Inc, New York. Conference, 1999."
2074,ethyl propyl ether,CCCOCC,333.33,0.00300003,0.2159,-0.665747358,0.689530793,1.01,22.76934653,3.533247641,14.01563762,14.45442967,7.046212436,31.32971287,"WE Wasburn. International critical tables of numerical data, physics, chemistry and technology. 1st electronic edition. Knovel: Norwich, NY, 2003."
2075,propyl ether,CCCOCCC,273.73,0.003653235,0.5359,-0.270916243,0.765763183,0.18,21.93482178,3.622236939,15.81924457,16.22887622,8.943262765,30.21016832,"WE Wasburn. International critical tables of numerical data, physics, chemistry and technology. 1st electronic edition. Knovel: Norwich, NY, 2003."
2076,propyl ether,CCCOCCC,281.73,0.003549498,0.4826,-0.316412682,0.756615384,0.22,22.01789109,3.525106155,15.56751747,15.96183514,8.783258173,30.32482178,"WE Wasburn. International critical tables of numerical data, physics, chemistry and technology. 1st electronic edition. Knovel: Norwich, NY, 2003."
2077,propyl ether,CCCOCCC,290.1,0.003447087,0.4358,-0.360712774,0.745135456,0.31,22.13247525,3.444694743,15.26646086,15.65049796,8.604036773,30.52594059,"WE Wasburn. International critical tables of numerical data, physics, chemistry and technology. 1st electronic edition. Knovel: Norwich, NY, 2003."
2078,propyl ether,CCCOCCC,297.8,0.003357958,0.3985,-0.399571674,0.736652049,0.48,22.22106931,3.336229521,15.04202929,15.40790382,8.462000517,30.68987129,"WE Wasburn. International critical tables of numerical data, physics, chemistry and technology. 1st electronic edition. Knovel: Norwich, NY, 2003."
2079,propyl ether,CCCOCCC,305.6,0.003272251,0.3654,-0.437231457,0.720403293,0.49,22.38874257,3.226017459,14.62911269,14.98091798,8.215160132,30.82751485,"WE Wasburn. International critical tables of numerical data, physics, chemistry and technology. 1st electronic edition. Knovel: Norwich, NY, 2003."
2080,propyl ether,CCCOCCC,313.62,0.003188572,0.336,-0.473660723,0.718893175,0.56,22.39528713,3.197653789,14.57267106,14.91964174,8.184844109,30.85565347,"WE Wasburn. International critical tables of numerical data, physics, chemistry and technology. 1st electronic edition. Knovel: Norwich, NY, 2003."
2081,propyl ether,CCCOCCC,321.21,0.003113228,0.3114,-0.506681392,0.706261671,0.59,22.53854455,3.093895941,14.25845508,14.59047432,7.999292626,31.05005941,"WE Wasburn. International critical tables of numerical data, physics, chemistry and technology. 1st electronic edition. Knovel: Norwich, NY, 2003."
2082,propyl ether,CCCOCCC,329.29,0.003036837,0.2876,-0.541211118,0.694725559,1.03,22.65780198,3.005561803,13.96272853,14.28285641,7.825357608,31.29178218,"WE Wasburn. International critical tables of numerical data, physics, chemistry and technology. 1st electronic edition. Knovel: Norwich, NY, 2003."
2083,propyl ether,CCCOCCC,337.31,0.002964632,0.2664,-0.57446578,0.683242471,1.33,22.78088119,2.91545694,13.66593672,13.97383007,7.64973336,31.34177228,"WE Wasburn. International critical tables of numerical data, physics, chemistry and technology. 1st electronic edition. Knovel: Norwich, NY, 2003."
2084,propyl ether,CCCOCCC,345.74,0.002892347,0.2469,-0.60747891,0.683923464,0.88,22.7679505,2.905379141,13.66305154,13.96887355,7.654580965,31.41175248,"WE Wasburn. International critical tables of numerical data, physics, chemistry and technology. 1st electronic edition. Knovel: Norwich, NY, 2003."
2085,propyl ether,CCCOCCC,354.62,0.00281992,0.2284,-0.6413039,0.664917651,1.43,22.98665347,2.776951713,13.20667362,13.49576634,7.39417733,31.66305941,"WE Wasburn. International critical tables of numerical data, physics, chemistry and technology. 1st electronic edition. Knovel: Norwich, NY, 2003."
2086,propyl ether,CCCOCCC,361.16,0.002768856,0.2154,-0.666754301,0.653890602,1.67,23.11583168,2.70786581,12.94116857,13.22171846,7.246507371,31.842,"WE Wasburn. International critical tables of numerical data, physics, chemistry and technology. 1st electronic edition. Knovel: Norwich, NY, 2003."
2087,Ethylene Glycol Propyl Ether,CCCOCCO,298.15,0.003354016,2.4,0.380211242,0.899827137,0.07,21.64119802,14.27479911,16.53222825,21.84294103,13.79121707,29.82235644,"Valentin Goussard, Francois Duprat, Jean-Luc Ploix, G erard Dreyfus, Veronique Nardello-Rataj, and Jean-Marie Aubry. A new machine-learning tool for fast estimation of liquid viscosity. application to cosmetic oils. Journal of Chemical Information and Modeling, 60(4):2012-2023, 2020."
2088,diethylene glycol monopropyl ether,CCCOCCOCCO,298.1,0.003354579,6.8,0.832508913,0.955581507,0.1,21.47946535,13.53185674,17.13730105,21.83614211,18.26707395,29.51677228,"Diego Alonso Saldana, Laurie Starck, Pascal Mougin, Bernard Rousseau, Nicolas Ferrando, and Benoit Creton. Prediction of density and viscosity of biofuel compounds using machine learning methods. Energy & fuels, 26(4):2416-2426, 2012."
2089,tetrapropoxysilane,CCCO[Si](OCCC)(OCCC)OCCC,298.15,0.003354016,1.3,0.113943352,0.910098901,0.1,22.06138614,2.771323912,15.10507558,15.35749346,16.97138247,30.24375248,"Valentin Goussard, Francois Duprat, Jean-Luc Ploix, G erard Dreyfus, Veronique Nardello-Rataj, and Jean-Marie Aubry. A new machine-learning tool for fast estimation of liquid viscosity. application to cosmetic oils. Journal of Chemical Information and Modeling, 60(4):2012-2023, 2020."
2090,propyl o-tolyl ether,CCCOc1ccc(C)cc1,293.15,0.003411223,2.014,0.304059466,0.942199291,0.04,21.95728713,6.292540334,18.01106853,19.07879932,14.45325235,30.31538614,"WE Wasburn. International critical tables of numerical data, physics, chemistry and technology. 1st electronic edition. Knovel: Norwich, NY, 2003."
2091,propyl phenyl ether,CCCOc1ccccc1,293.15,0.003411223,1.588,0.200850498,0.95426199,0.05,22.09606931,6.669439344,18.13094303,19.31888907,13.31356857,30.39187129,"WE Wasburn. International critical tables of numerical data, physics, chemistry and technology. 1st electronic edition. Knovel: Norwich, NY, 2003."
2092,Phenyl propyl ether,CCCOc1ccccc1,298.15,0.003354016,1.4,0.146128036,0.945789681,0.05,22.15984158,6.565749903,17.93508332,19.09928211,13.14717861,30.59639604,"Valentin Goussard, Francois Duprat, Jean-Luc Ploix, G erard Dreyfus, Veronique Nardello-Rataj, and Jean-Marie Aubry. A new machine-learning tool for fast estimation of liquid viscosity. application to cosmetic oils. Journal of Chemical Information and Modeling, 60(4):2012-2023, 2020."
2093,S-propyl chlorothioformate,CCCSC(=O)Cl,293.15,0.003411223,4.0,0.602059991,1.183418063,0.02,24.04681188,5.272536226,19.90079922,20.58752662,12.448116,33.23012871,"Sunghwan Kim, Paul A Thiessen, Tiejun Cheng, Jian Zhang, Asta Gindulyte, and Evan E Bolton. Pug-view: programmatic access to chemical annotations integrated in pubchem. Journal of cheminformatics, 11(1):1-11, 2019."
2094,1-nitropropane,CCC[N+](=O)[O-],322.15,0.003104144,0.797994687,-0.098,0.948828598,0.18,22.89436634,10.62739484,16.94726281,20.00388029,9.620593587,31.66728713,"Marina Cocchi, Pier Giuseppe De Benedetti, Renato Seeber, Lorenzo Tassi, and Alessandro Ulrici. Development of quantitative structure- property relationships using calculated descriptors for the prediction of the physicochemical properties of a series of organic solvents. Journal of chemical information and computer sciences, 39(6):1190-1203, 1999."
2095,Ethyl chloride,CCCl,293.15,0.003411223,0.27,-0.568636236,0.895522528,0.46,24.63613861,8.007106885,15.24167006,17.21699985,5.68646684,34.20105941,"Dabir S Viswanath, Tushar K Ghosh, Dasika HL Prasad, Nidamarty VK Dutt, Kalipatnapu Y Rani, Dabir S Viswanath, Tushar K Ghosh, Dasika HL Prasad, Nidamarty VK Dutt, and Kalipatnapu Y Rani. Correlations and estimation of pure liquid viscosity.Viscosity of Liquids: Theory, Estimation, Experiment, and Data, pages 135-405, 2007."
2096,Iodoethane,CCI,288.15,0.003470415,0.617,-0.209714836,2.069999204,0.08,25.0100396,7.170038798,18.40892423,19.75602329,7.601117166,34.70776238,"A Dean John et al. Lange's handbook of chemistry. In Universitas Of Tennese Knoxville, Fifthenth Edition, Mc. Graw Hill Inc, New York. Conference, 1999."
2097,Ethyl iodide,CCI,293.15,0.003411223,0.59,-0.229147988,2.05418215,0.09,25.07007921,7.097330628,18.23667992,19.56914069,7.531812514,34.80213861,"Dabir S Viswanath, Tushar K Ghosh, Dasika HL Prasad, Nidamarty VK Dutt, Kalipatnapu Y Rani, Dabir S Viswanath, Tushar K Ghosh, Dasika HL Prasad, Nidamarty VK Dutt, and Kalipatnapu Y Rani. Correlations and estimation of pure liquid viscosity.Viscosity of Liquids: Theory, Estimation, Experiment, and Data, pages 135-405, 2007."
2098,Iodoethane,CCI,303.15,0.003298697,0.54,-0.26760624,2.03449014,0.13,25.14657426,6.992624788,18.0241013,19.33307154,7.450679239,34.9300099,"A Dean John et al. Lange's handbook of chemistry. In Universitas Of Tennese Knoxville, Fifthenth Edition, Mc. Graw Hill Inc, New York. Conference, 1999."
2099,iodoethane,CCI,322.15,0.003104144,0.539510623,-0.268,1.982628454,0.23,25.36937624,6.787247913,17.46187337,18.73464726,7.23926883,35.24507921,"Marina Cocchi, Pier Giuseppe De Benedetti, Renato Seeber, Lorenzo Tassi, and Alessandro Ulrici. Development of quantitative structure- property relationships using calculated descriptors for the prediction of the physicochemical properties of a series of organic solvents. Journal of chemical information and computer sciences, 39(6):1190-1203, 1999."
2100,"N,N-diethylformamide",CCN(C=O)CC,298.15,0.003354016,1.253141175,0.098,0.905363064,0.06,21.77615842,12.0107902,17.97847338,21.62150629,13.07541238,29.97376238,"Gregory W Kau man and Peter C Jurs. Prediction of surface tension, viscosity, and thermal conductivity for common organic solvents using quantitative structure- property relationships. Journal of chemical information and computer sciences, 41(2):408-418, 2001."
2101,Deet,CCN(CC)C(=O)c1cccc(C)c1,303.15,0.003298697,13.3,1.123851641,1.005389248,0.03,21.70309901,8.708375235,18.52120831,20.46643589,19.64882194,27.37740594,"Sunghwan Kim, Paul A Thiessen, Tiejun Cheng, Jian Zhang, Asta Gindulyte, and Evan E Bolton. Pug-view: programmatic access to chemical annotations integrated in pubchem. Journal of cheminformatics, 11(1):1-11, 2019."
2102,triethylamine,CCN(CC)CC,239.65,0.004172752,0.7726,-0.112045296,0.792008689,0.09,21.29207921,3.688031153,16.43695497,16.84580838,9.142030027,29.27157426,"WE Wasburn. International critical tables of numerical data, physics, chemistry and technology. 1st electronic edition. Knovel: Norwich, NY, 2003."
2103,Diethylaminoethanol,CCN(CC)CCO,293.15,0.003411223,5.0,0.698970004,0.866652626,0.11,21.3730198,10.63000122,16.08831713,19.28404493,12.6014652,29.32789109,"Sunghwan Kim, Paul A Thiessen, Tiejun Cheng, Jian Zhang, Asta Gindulyte, and Evan E Bolton. Pug-view: programmatic access to chemical annotations integrated in pubchem. Journal of cheminformatics, 11(1):1-11, 2019."
2104,"N,N-Diethylaniline",CCN(CC)c1ccccc1,273.15,0.003660992,3.838,0.58410497,0.951244003,0.02,21.56832673,5.495688949,18.16799269,18.9811806,14.05224585,29.62655446,"A Dean John et al. Lange's handbook of chemistry. In Universitas Of Tennese Knoxville, Fifthenth Edition, Mc. Graw Hill Inc, New York. Conference, 1999."
2105,diethylaniline,CCN(CC)c1ccccc1,273.65,0.003654303,3.841,0.584444307,0.950866525,0.02,21.56807921,5.473513532,18.1667354,18.97357856,14.04776673,29.69686139,"WE Wasburn. International critical tables of numerical data, physics, chemistry and technology. 1st electronic edition. Knovel: Norwich, NY, 2003."
2106,diethylaniline,CCN(CC)c1ccccc1,283.15,0.003531697,2.85,0.45484486,0.946093685,0.02,21.61093069,5.379705494,18.00807943,18.79467686,13.88004405,29.6829802,"WE Wasburn. International critical tables of numerical data, physics, chemistry and technology. 1st electronic edition. Knovel: Norwich, NY, 2003."
2107,diethylaniline,CCN(CC)c1ccccc1,313.15,0.003193358,1.425,0.153814864,0.909072387,0.08,21.89009901,4.906527937,17.08899699,17.77964235,13.02540008,30.02157426,"WE Wasburn. International critical tables of numerical data, physics, chemistry and technology. 1st electronic edition. Knovel: Norwich, NY, 2003."
2108,"N,N-Diethylaniline",CCN(CC)c1ccccc1,323.15,0.003094538,1.15,0.06069784,0.908402253,0.1,21.89847525,4.824489597,17.04798031,17.71780406,12.96824428,30.07953465,"A Dean John et al. Lange's handbook of chemistry. In Universitas Of Tennese Knoxville, Fifthenth Edition, Mc. Graw Hill Inc, New York. Conference, 1999."
2109,diethylaniline,CCN(CC)c1ccccc1,333.15,0.003001651,1.021,0.009025742,0.896541005,0.13,21.99536634,4.705373685,16.75796122,17.40634894,12.71597128,30.25254455,"WE Wasburn. International critical tables of numerical data, physics, chemistry and technology. 1st electronic edition. Knovel: Norwich, NY, 2003."