Index,Name,CANON_SMILES,Temperature (K),Inverse temperature (1/K),Viscosity (cP),log(Viscosity),MD_density,MD_FV,MD_Rg,MD_SP_E,MD_SP_V,MD_SP,MD_HV,MD_RMSD,Reference
1791,"propane-1,2,3-tricarboxylic acid tripentyl ester",CCCCCOC(=O)CC(CC(=O)OCCCCC)C(=O)OCCCCC,298.15,0.003354016,17.4,1.240549248,0.988395666,0.02,21.59058416,4.983636009,17.51657332,18.2119345,31.59336958,27.02737624,"Valentin Goussard, Francois Duprat, Jean-Luc Ploix, G erard Dreyfus, Veronique Nardello-Rataj, and Jean-Marie Aubry. A new machine-learning tool for fast estimation of liquid viscosity. application to cosmetic oils. Journal of Chemical Information and Modeling, 60(4):2012-2023, 2020."
1792,pentyl butanoate,CCCCCOC(=O)CCC,303.2,0.003298153,1.02,0.008600172,0.863970827,0.13,21.893,4.186084161,16.79432164,17.30832773,13.71664402,30.10920792,"Diego Alonso Saldana, Laurie Starck, Pascal Mougin, Bernard Rousseau, Nicolas Ferrando, and Benoit Creton. Prediction of density and viscosity of biofuel compounds using machine learning methods. Energy & fuels, 26(4):2416-2426, 2012."
1793,pentyl butanoate,CCCCCOC(=O)CCC,313.2,0.003192848,0.89,-0.050609993,0.856364304,0.15,21.95573267,4.097962918,16.57754255,17.0767728,13.50136931,30.21826733,"Diego Alonso Saldana, Laurie Starck, Pascal Mougin, Bernard Rousseau, Nicolas Ferrando, and Benoit Creton. Prediction of density and viscosity of biofuel compounds using machine learning methods. Energy & fuels, 26(4):2416-2426, 2012."
1794,pentyl butanoate,CCCCCOC(=O)CCC,333.2,0.0030012,0.69,-0.161150909,0.830934701,0.23,22.17738614,3.903683643,15.93742845,16.40876628,12.91710813,30.51180198,"Diego Alonso Saldana, Laurie Starck, Pascal Mougin, Bernard Rousseau, Nicolas Ferrando, and Benoit Creton. Prediction of density and viscosity of biofuel compounds using machine learning methods. Energy & fuels, 26(4):2416-2426, 2012."
1795,pentyl butanoate,CCCCCOC(=O)CCC,353.2,0.002831257,0.55,-0.259637311,0.808319123,0.44,22.38779208,3.704179621,15.36169837,15.8022509,12.38565218,30.89241584,"Diego Alonso Saldana, Laurie Starck, Pascal Mougin, Bernard Rousseau, Nicolas Ferrando, and Benoit Creton. Prediction of density and viscosity of biofuel compounds using machine learning methods. Energy & fuels, 26(4):2416-2426, 2012."
1796,pentyl butanoate,CCCCCOC(=O)CCC,373.2,0.002679528,0.45,-0.346787486,0.787833069,0.58,22.58668317,3.553938709,14.85565809,15.27512322,11.94283805,31.0260297,"Diego Alonso Saldana, Laurie Starck, Pascal Mougin, Bernard Rousseau, Nicolas Ferrando, and Benoit Creton. Prediction of density and viscosity of biofuel compounds using machine learning methods. Energy & fuels, 26(4):2416-2426, 2012."
1797,heptanedioic acid dipentyl ester,CCCCCOC(=O)CCCCCC(=O)OCCCCC,298.15,0.003354016,7.0,0.84509804,0.950584733,0.03,21.47884158,4.759474018,17.79859066,18.42417945,26.23443954,28.99754455,"Valentin Goussard, Francois Duprat, Jean-Luc Ploix, G erard Dreyfus, Veronique Nardello-Rataj, and Jean-Marie Aubry. A new machine-learning tool for fast estimation of liquid viscosity. application to cosmetic oils. Journal of Chemical Information and Modeling, 60(4):2012-2023, 2020."
1798,Dipentyl o-phthalate,CCCCCOC(=O)c1ccccc1C(=O)OCCCCC,318.15,0.003143171,11.51,1.061075324,1.010767212,0.07,21.89611881,5.57978217,17.87849377,18.72917196,26.04707064,28.00675248,"A Dean John et al. Lange's handbook of chemistry. In Universitas Of Tennese Knoxville, Fifthenth Edition, Mc. Graw Hill Inc, New York. Conference, 1999."
1799,pentyl ethanoate,CCCCCOC(C)=O,288.1,0.003471017,1.01,0.004321374,0.903821548,0.07,21.83410891,5.439838432,17.59741147,18.41921209,12.25232284,30.11422772,"Diego Alonso Saldana, Laurie Starck, Pascal Mougin, Bernard Rousseau, Nicolas Ferrando, and Benoit Creton. Prediction of density and viscosity of biofuel compounds using machine learning methods. Energy & fuels, 26(4):2416-2426, 2012."
1800,pentyl ethanoate,CCCCCOC(C)=O,288.5,0.003466205,1.01,0.004321374,0.900365558,0.07,21.85934653,5.434585657,17.50600599,18.33033023,12.18507295,30.12351485,"Diego Alonso Saldana, Laurie Starck, Pascal Mougin, Bernard Rousseau, Nicolas Ferrando, and Benoit Creton. Prediction of density and viscosity of biofuel compounds using machine learning methods. Energy & fuels, 26(4):2416-2426, 2012."
1801,pentyl ethanoate,CCCCCOC(C)=O,293.1,0.003411805,0.92,-0.036212173,0.881912864,0.12,22.01270297,5.279321747,17.08831898,17.8854059,11.86866804,30.25238614,"Diego Alonso Saldana, Laurie Starck, Pascal Mougin, Bernard Rousseau, Nicolas Ferrando, and Benoit Creton. Prediction of density and viscosity of biofuel compounds using machine learning methods. Energy & fuels, 26(4):2416-2426, 2012."
1802,Pentyl acetate,CCCCCOC(C)=O,293.15,0.003411223,0.924,-0.034328029,0.889809869,0.11,21.94275248,5.343210249,17.25523855,18.06375504,11.99278231,30.20088119,"A Dean John et al. Lange's handbook of chemistry. In Universitas Of Tennese Knoxville, Fifthenth Edition, Mc. Graw Hill Inc, New York. Conference, 1999."
1803,pentyl ethanoate,CCCCCOC(C)=O,298.1,0.003354579,0.86,-0.065501549,0.888394249,0.07,21.95713861,5.303563478,17.21264314,18.01138388,11.95464576,30.29233663,"Diego Alonso Saldana, Laurie Starck, Pascal Mougin, Bernard Rousseau, Nicolas Ferrando, and Benoit Creton. Prediction of density and viscosity of biofuel compounds using machine learning methods. Energy & fuels, 26(4):2416-2426, 2012."
1804,pentyl ethanoate,CCCCCOC(C)=O,300.2,0.003331113,0.81,-0.091514981,0.880925678,0.11,22.01507921,5.241387307,17.03705019,17.82525308,11.81955867,30.27075248,"Diego Alonso Saldana, Laurie Starck, Pascal Mougin, Bernard Rousseau, Nicolas Ferrando, and Benoit Creton. Prediction of density and viscosity of biofuel compounds using machine learning methods. Energy & fuels, 26(4):2416-2426, 2012."
1805,pentyl ethanoate,CCCCCOC(C)=O,303.1,0.003299241,0.83,-0.080921908,0.882866165,0.07,22.00226733,5.25541214,17.06391003,17.85507347,11.83815907,30.27725743,"Diego Alonso Saldana, Laurie Starck, Pascal Mougin, Bernard Rousseau, Nicolas Ferrando, and Benoit Creton. Prediction of density and viscosity of biofuel compounds using machine learning methods. Energy & fuels, 26(4):2416-2426, 2012."
1806,pentyl ethanoate,CCCCCOC(C)=O,315.5,0.003169572,0.67,-0.173925197,0.86562274,0.11,22.1460297,5.076370277,16.64460195,17.40170348,11.5120409,30.55528713,"Diego Alonso Saldana, Laurie Starck, Pascal Mougin, Bernard Rousseau, Nicolas Ferrando, and Benoit Creton. Prediction of density and viscosity of biofuel compounds using machine learning methods. Energy & fuels, 26(4):2416-2426, 2012."
1807,pentyl ethanoate,CCCCCOC(C)=O,336.1,0.002975305,0.53,-0.27572413,0.838553609,0.33,22.38464356,4.812330116,15.98326289,16.69225276,11.00687227,30.82531683,"Diego Alonso Saldana, Laurie Starck, Pascal Mougin, Bernard Rousseau, Nicolas Ferrando, and Benoit Creton. Prediction of density and viscosity of biofuel compounds using machine learning methods. Energy & fuels, 26(4):2416-2426, 2012."
1808,pentyl ethanoate,CCCCCOC(C)=O,373.6,0.00267666,0.36,-0.443697499,0.80987132,0.56,22.64665347,4.508033761,15.23267971,15.88600746,10.43840246,31.14646535,"Diego Alonso Saldana, Laurie Starck, Pascal Mougin, Bernard Rousseau, Nicolas Ferrando, and Benoit Creton. Prediction of density and viscosity of biofuel compounds using machine learning methods. Energy & fuels, 26(4):2416-2426, 2012."
1809,pentyl ethanoate,CCCCCOC(C)=O,392.5,0.002547771,0.3,-0.522878745,0.788282456,0.72,22.84829703,4.326041885,14.7248112,15.34740972,10.07747481,31.39693069,"Diego Alonso Saldana, Laurie Starck, Pascal Mougin, Bernard Rousseau, Nicolas Ferrando, and Benoit Creton. Prediction of density and viscosity of biofuel compounds using machine learning methods. Energy & fuels, 26(4):2416-2426, 2012."
1810,pentyl ethanoate,CCCCCOC(C)=O,400.0,0.0025,0.25,-0.602059991,0.782324229,1.0,22.91355446,4.253262244,14.57080723,15.17912975,9.958907724,31.58667327,"Diego Alonso Saldana, Laurie Starck, Pascal Mougin, Bernard Rousseau, Nicolas Ferrando, and Benoit Creton. Prediction of density and viscosity of biofuel compounds using machine learning methods. Energy & fuels, 26(4):2416-2426, 2012."
1811,pentyl methanoate,CCCCCOC=O,288.1,0.003471017,0.85,-0.070581074,0.886846912,0.1,22.15670297,5.131288646,17.33436686,18.07809927,10.80359516,30.49072277,"Diego Alonso Saldana, Laurie Starck, Pascal Mougin, Bernard Rousseau, Nicolas Ferrando, and Benoit Creton. Prediction of density and viscosity of biofuel compounds using machine learning methods. Energy & fuels, 26(4):2416-2426, 2012."
1812,pentyl formate,CCCCCOC=O,298.15,0.003354016,0.78,-0.107905397,0.883092277,0.11,22.18369307,5.063449027,17.21341289,17.94290938,10.71398923,30.58610891,"Valentin Goussard, Francois Duprat, Jean-Luc Ploix, G erard Dreyfus, Veronique Nardello-Rataj, and Jean-Marie Aubry. A new machine-learning tool for fast estimation of liquid viscosity. application to cosmetic oils. Journal of Chemical Information and Modeling, 60(4):2012-2023, 2020."
1813,pentyl methanoate,CCCCCOC=O,303.1,0.003299241,0.69,-0.161150909,0.869436821,0.19,22.29640594,4.983589053,16.8920348,17.61208794,10.50721272,30.72508911,"Diego Alonso Saldana, Laurie Starck, Pascal Mougin, Bernard Rousseau, Nicolas Ferrando, and Benoit Creton. Prediction of density and viscosity of biofuel compounds using machine learning methods. Energy & fuels, 26(4):2416-2426, 2012."
1814,Dipentyl ether,CCCCCOCCCCC,288.15,0.003470415,1.188,0.074816441,0.786275021,0.11,21.65413861,2.592774366,15.95939954,16.16896761,13.15137255,29.70276238,"A Dean John et al. Lange's handbook of chemistry. In Universitas Of Tennese Knoxville, Fifthenth Edition, Mc. Graw Hill Inc, New York. Conference, 1999."
1815,Dipentyl ether,CCCCCOCCCCC,298.15,0.003354016,0.98,-0.008773924,0.774222999,0.21,21.76315842,2.508669211,15.63506155,15.83528966,12.84523154,29.98085149,"Valentin Goussard, Francois Duprat, Jean-Luc Ploix, G erard Dreyfus, Veronique Nardello-Rataj, and Jean-Marie Aubry. A new machine-learning tool for fast estimation of liquid viscosity. application to cosmetic oils. Journal of Chemical Information and Modeling, 60(4):2012-2023, 2020."
1816,Dipentyl ether,CCCCCOCCCCC,303.15,0.003298697,0.922,-0.035269079,0.772615894,0.23,21.7870297,2.481361956,15.56824685,15.76496873,12.77186346,30.01964356,"A Dean John et al. Lange's handbook of chemistry. In Universitas Of Tennese Knoxville, Fifthenth Edition, Mc. Graw Hill Inc, New York. Conference, 1999."
1817,Pentyl benzene,CCCCCc1ccccc1,298.15,0.003354016,1.22,0.086359831,0.852763371,0.14,22.04532673,3.221904884,16.81468278,17.12085961,12.77177967,30.3469703,"Dabir S Viswanath, Tushar K Ghosh, Dasika HL Prasad, Nidamarty VK Dutt, Kalipatnapu Y Rani, Dabir S Viswanath, Tushar K Ghosh, Dasika HL Prasad, Nidamarty VK Dutt, and Kalipatnapu Y Rani. Correlations and estimation of pure liquid viscosity.Viscosity of Liquids: Theory, Estimation, Experiment, and Data, pages 135-405, 2007."
1818,1-chlorobutane,CCCCCl,322.15,0.003104144,0.404575892,-0.393,0.850663186,0.41,23.46356436,5.688746662,15.10241294,16.13842951,7.414049989,32.37110891,"Marina Cocchi, Pier Giuseppe De Benedetti, Renato Seeber, Lorenzo Tassi, and Alessandro Ulrici. Development of quantitative structure- property relationships using calculated descriptors for the prediction of the physicochemical properties of a series of organic solvents. Journal of chemical information and computer sciences, 39(6):1190-1203, 1999."
1819,1-iodobutane,CCCCI,298.15,0.003354016,0.82603795,-0.083,1.676781148,0.09,23.53121782,5.274091318,17.74421744,18.51156067,9.580825578,32.47641584,"Gregory W Kau man and Peter C Jurs. Prediction of surface tension, viscosity, and thermal conductivity for common organic solvents using quantitative structure- property relationships. Journal of chemical information and computer sciences, 41(2):408-418, 2001."
1820,Tributylamine,CCCCN(CCCC)CCCC,333.15,0.003001651,0.73,-0.13667714,0.74225696,0.28,21.80136634,1.597570297,14.27559022,14.36494674,12.97791269,29.89285149,"Sunghwan Kim, Paul A Thiessen, Tiejun Cheng, Jian Zhang, Asta Gindulyte, and Evan E Bolton. Pug-view: programmatic access to chemical annotations integrated in pubchem. Journal of cheminformatics, 11(1):1-11, 2019."
1821,1-butanol,CCCCO,233.1,0.004290004,21.7,1.336459734,0.857544944,0.02,21.23876238,18.61825349,16.47347233,24.86015382,13.23086422,27.70689109,"Diego Alonso Saldana, Laurie Starck, Pascal Mougin, Bernard Rousseau, Nicolas Ferrando, and Benoit Creton. Prediction of density and viscosity of biofuel compounds using machine learning methods. Energy & fuels, 26(4):2416-2426, 2012."
1822,1-butanol,CCCCO,243.1,0.004113534,14.47,1.160468531,0.846981489,0.04,21.33253465,18.34555481,16.22626488,24.49216197,13.03010791,28.65523762,"Diego Alonso Saldana, Laurie Starck, Pascal Mougin, Bernard Rousseau, Nicolas Ferrando, and Benoit Creton. Prediction of density and viscosity of biofuel compounds using machine learning methods. Energy & fuels, 26(4):2416-2426, 2012."
1823,1-butanol,CCCCO,253.1,0.003951008,9.96,0.998259338,0.836972737,0.08,21.41474257,18.07465438,15.99678202,24.13720173,12.83466608,29.41608911,"Diego Alonso Saldana, Laurie Starck, Pascal Mougin, Bernard Rousseau, Nicolas Ferrando, and Benoit Creton. Prediction of density and viscosity of biofuel compounds using machine learning methods. Energy & fuels, 26(4):2416-2426, 2012."
1824,1-butanol,CCCCO,263.1,0.003800836,7.25,0.860338007,0.832690218,0.05,21.44571287,17.86132559,15.89802982,23.91208948,12.68785835,29.48623762,"Diego Alonso Saldana, Laurie Starck, Pascal Mougin, Bernard Rousseau, Nicolas Ferrando, and Benoit Creton. Prediction of density and viscosity of biofuel compounds using machine learning methods. Energy & fuels, 26(4):2416-2426, 2012."
1825,1-butanol,CCCCO,273.1,0.003661662,5.27,0.721810615,0.826310493,0.07,21.50223762,17.61837369,15.75692539,23.63688136,12.52108882,29.64931683,"Diego Alonso Saldana, Laurie Starck, Pascal Mougin, Bernard Rousseau, Nicolas Ferrando, and Benoit Creton. Prediction of density and viscosity of biofuel compounds using machine learning methods. Energy & fuels, 26(4):2416-2426, 2012."
1826,n-butyl alcohol,CCCCO,273.42,0.003657377,5.154,0.712144414,0.823325124,0.09,21.5329802,17.56956737,15.68939707,23.55557619,12.48260283,29.79407921,"WE Wasburn. International critical tables of numerical data, physics, chemistry and technology. 1st electronic edition. Knovel: Norwich, NY, 2003."
1827,1-butanol,CCCCO,278.1,0.003595829,4.59,0.661812686,0.810919911,0.12,21.6390495,17.30365613,15.42528653,23.18120234,12.29229608,29.83055446,"Diego Alonso Saldana, Laurie Starck, Pascal Mougin, Bernard Rousseau, Nicolas Ferrando, and Benoit Creton. Prediction of density and viscosity of biofuel compounds using machine learning methods. Energy & fuels, 26(4):2416-2426, 2012."
1828,1-butanol,CCCCO,283.1,0.003532321,3.87,0.587710965,0.811460104,0.13,21.6280495,17.24521453,15.4322152,23.1423705,12.25518732,30.00035644,"Diego Alonso Saldana, Laurie Starck, Pascal Mougin, Bernard Rousseau, Nicolas Ferrando, and Benoit Creton. Prediction of density and viscosity of biofuel compounds using machine learning methods. Energy & fuels, 26(4):2416-2426, 2012."
1829,n-butyl alcohol,CCCCO,283.84,0.003523112,3.796,0.579326204,0.805235935,0.24,21.68914851,17.12761079,15.31091259,22.97377669,12.17592832,29.89927723,"WE Wasburn. International critical tables of numerical data, physics, chemistry and technology. 1st electronic edition. Knovel: Norwich, NY, 2003."
1830,1-butanol,CCCCO,288.1,0.003471017,3.32,0.521138084,0.804948366,0.17,21.69384158,17.04568504,15.30010939,22.90551194,12.11963069,29.91872277,"Diego Alonso Saldana, Laurie Starck, Pascal Mougin, Bernard Rousseau, Nicolas Ferrando, and Benoit Creton. Prediction of density and viscosity of biofuel compounds using machine learning methods. Energy & fuels, 26(4):2416-2426, 2012."
1831,1-butanol,CCCCO,293.1,0.003411805,2.94,0.46834733,0.801416568,0.13,21.72289109,16.86864717,15.23679577,22.73168342,12.00510619,30.01384158,"Diego Alonso Saldana, Laurie Starck, Pascal Mougin, Bernard Rousseau, Nicolas Ferrando, and Benoit Creton. Prediction of density and viscosity of biofuel compounds using machine learning methods. Energy & fuels, 26(4):2416-2426, 2012."
1832,1-Butanol,CCCCO,293.15,0.003411223,2.948,0.469527479,0.799340891,0.13,21.74182178,16.87234201,15.17823387,22.69520118,11.99810432,29.98909901,"A Dean John et al. Lange's handbook of chemistry. In Universitas Of Tennese Knoxville, Fifthenth Edition, Mc. Graw Hill Inc, New York. Conference, 1999."
1833,n-butyl alcohol,CCCCO,294.98,0.00339006,2.801,0.447313109,0.805331963,0.14,21.68494059,16.92056739,15.31966163,22.8257854,12.04763636,30.0120099,"WE Wasburn. International critical tables of numerical data, physics, chemistry and technology. 1st electronic edition. Knovel: Norwich, NY, 2003."
1834,1-butanol,CCCCO,298.1,0.003354579,2.57,0.409933123,0.79856893,0.08,21.74459406,16.75821864,15.17288614,22.60682098,11.93019896,30.01283168,"Diego Alonso Saldana, Laurie Starck, Pascal Mougin, Bernard Rousseau, Nicolas Ferrando, and Benoit Creton. Prediction of density and viscosity of biofuel compounds using machine learning methods. Energy & fuels, 26(4):2416-2426, 2012."
1835,1-butanol,CCCCO,300.1,0.003332223,2.38,0.376576957,0.799479747,0.17,21.74125743,16.72653327,15.18843407,22.59392722,11.908354,30.09722772,"Diego Alonso Saldana, Laurie Starck, Pascal Mougin, Bernard Rousseau, Nicolas Ferrando, and Benoit Creton. Prediction of density and viscosity of biofuel compounds using machine learning methods. Energy & fuels, 26(4):2416-2426, 2012."
1836,1-butanol,CCCCO,303.1,0.003299241,2.25,0.352182518,0.790508517,0.23,21.82078218,16.53374568,15.00508198,22.32789484,11.77485534,30.12525743,"Diego Alonso Saldana, Laurie Starck, Pascal Mougin, Bernard Rousseau, Nicolas Ferrando, and Benoit Creton. Prediction of density and viscosity of biofuel compounds using machine learning methods. Energy & fuels, 26(4):2416-2426, 2012."
1837,n-butyl alcohol,CCCCO,304.88,0.003279979,2.172,0.336859821,0.795465506,0.17,21.7780396,16.5814155,15.10538085,22.43055119,11.81110882,30.05184158,"WE Wasburn. International critical tables of numerical data, physics, chemistry and technology. 1st electronic edition. Knovel: Norwich, NY, 2003."
1838,1-butanol,CCCCO,308.1,0.003245699,1.99,0.298853076,0.790472867,0.15,21.82588119,16.43306953,15.00341838,22.25232982,11.70977924,30.12826733,"Diego Alonso Saldana, Laurie Starck, Pascal Mougin, Bernard Rousseau, Nicolas Ferrando, and Benoit Creton. Prediction of density and viscosity of biofuel compounds using machine learning methods. Energy & fuels, 26(4):2416-2426, 2012."
1839,1-butanol,CCCCO,313.1,0.003193868,1.78,0.250420002,0.778492295,0.31,21.93250495,16.16353898,14.75100453,21.88312398,11.51972842,30.28551485,"Diego Alonso Saldana, Laurie Starck, Pascal Mougin, Bernard Rousseau, Nicolas Ferrando, and Benoit Creton. Prediction of density and viscosity of biofuel compounds using machine learning methods. Energy & fuels, 26(4):2416-2426, 2012."
1840,1-Butanol,CCCCO,313.15,0.003193358,1.782,0.2509077,0.789973377,0.2,21.82133663,16.32950221,15.00520449,22.17730281,11.65211249,30.13183168,"A Dean John et al. Lange's handbook of chemistry. In Universitas Of Tennese Knoxville, Fifthenth Edition, Mc. Graw Hill Inc, New York. Conference, 1999."
1841,n-butyl alcohol,CCCCO,316.06,0.003163956,1.661,0.220369633,0.778153045,0.3,21.9419901,16.07899817,14.75347597,21.82239262,11.46994685,30.27715842,"WE Wasburn. International critical tables of numerical data, physics, chemistry and technology. 1st electronic edition. Knovel: Norwich, NY, 2003."