Index,Name,CANON_SMILES,Temperature (K),Inverse temperature (1/K),Viscosity (cP),log(Viscosity),MD_density,MD_FV,MD_Rg,MD_SP_E,MD_SP_V,MD_SP,MD_HV,MD_RMSD,Reference
2494,methyl ethanoate,COC(C)=O,319.3,0.003131851,0.29,-0.537602002,0.907445064,0.34,23.11030693,8.709018115,16.6993716,18.83402989,7.555562928,32.01012871,"Diego Alonso Saldana, Laurie Starck, Pascal Mougin, Bernard Rousseau, Nicolas Ferrando, and Benoit Creton. Prediction of density and viscosity of biofuel compounds using machine learning methods. Energy & fuels, 26(4):2416-2426, 2012."
2495,methyl acetate,COC(C)=O,323.49,0.003091286,0.2828,-0.548520595,0.912601204,0.15,23.05830693,8.735643092,16.78772272,18.92469768,7.591206889,31.9420099,"WE Wasburn. International critical tables of numerical data, physics, chemistry and technology. 1st electronic edition. Knovel: Norwich, NY, 2003."
2496,methyl acetate,COC(C)=O,327.48,0.003053622,0.2727,-0.564314862,0.91498554,0.17,23.04074257,8.748026429,16.82090084,18.95983201,7.606779744,31.88776238,"WE Wasburn. International critical tables of numerical data, physics, chemistry and technology. 1st electronic edition. Knovel: Norwich, NY, 2003."
2497,Dipropylene glycol methyl ether,COC(C)COC(C)CO,298.15,0.003354016,3.1,0.491361694,0.965339151,0.04,21.41214851,13.19346594,16.81807016,21.37624874,17.35937827,29.06528713,"A Dean John et al. Lange's handbook of chemistry. In Universitas Of Tennese Knoxville, Fifthenth Edition, Mc. Graw Hill Inc, New York. Conference, 1999."
2498,Tripropylene glycol methyl ether,COC(C)COC(C)COC(C)CO,298.15,0.003354016,5.96,0.77524626,0.976726508,0.04,21.3759802,11.49978129,16.67134805,20.25334344,21.29843224,27.38231683,"A Dean John et al. Lange's handbook of chemistry. In Universitas Of Tennese Knoxville, Fifthenth Edition, Mc. Graw Hill Inc, New York. Conference, 1999."
2499,bis(methoxyethyl) ether,COC(C)OC(C)OC,298.15,0.003354016,0.988553095,-0.005,0.926550253,0.14,21.86762376,7.123198481,16.40223763,17.88258227,11.66063806,30.0829802,"Gregory W Kau man and Peter C Jurs. Prediction of surface tension, viscosity, and thermal conductivity for common organic solvents using quantitative structure- property relationships. Journal of chemical information and computer sciences, 41(2):408-418, 2001."
2500,methyl carbamate,COC(N)=O,328.75,0.003041825,2.28,0.357934847,1.19869318,0.01,21.83064356,23.59985472,19.86875974,30.85019969,14.89834408,30.19929703,"WE Wasburn. International critical tables of numerical data, physics, chemistry and technology. 1st electronic edition. Knovel: Norwich, NY, 2003."
2501,methyl carbamate,COC(N)=O,347.75,0.002875629,1.37,0.136720567,1.181225988,0.01,21.93250495,22.99020213,19.57607456,30.19580764,14.53998958,30.45739604,"WE Wasburn. International critical tables of numerical data, physics, chemistry and technology. 1st electronic edition. Knovel: Norwich, NY, 2003."
2502,methyl carbamate,COC(N)=O,355.35,0.002814127,1.24,0.093421685,1.169948302,0.02,22.00363366,22.6817187,19.39170444,29.84145391,14.36234227,30.5289604,"WE Wasburn. International critical tables of numerical data, physics, chemistry and technology. 1st electronic edition. Knovel: Norwich, NY, 2003."
2503,methyl carbamate,COC(N)=O,372.15,0.002687089,0.85,-0.070581074,1.152147604,0.04,22.11809901,22.12831552,19.07285315,29.2138916,14.02963004,30.68486139,"WE Wasburn. International critical tables of numerical data, physics, chemistry and technology. 1st electronic edition. Knovel: Norwich, NY, 2003."
2504,methyl formate,COC=O,273.73,0.003653235,0.4263,-0.370284667,0.974353676,0.06,23.39263366,10.02345394,17.99700004,20.60013692,6.795128365,32.47970297,"WE Wasburn. International critical tables of numerical data, physics, chemistry and technology. 1st electronic edition. Knovel: Norwich, NY, 2003."
2505,methyl formate,COC=O,279.54,0.003577306,0.3999,-0.398048596,0.96122409,0.1,23.5009703,9.843600904,17.72268436,20.27298166,6.69239708,32.62528713,"WE Wasburn. International critical tables of numerical data, physics, chemistry and technology. 1st electronic edition. Knovel: Norwich, NY, 2003."
2506,methyl formate,COC=O,284.03,0.003520755,0.3809,-0.419189027,0.956496837,0.13,23.53431683,9.769111156,17.61896382,20.14615948,6.654728864,32.69744554,"WE Wasburn. International critical tables of numerical data, physics, chemistry and technology. 1st electronic edition. Knovel: Norwich, NY, 2003."
2507,Methyl formate,COC=O,288.15,0.003470415,0.36,-0.443697499,0.954449617,0.1,23.54954455,9.739695444,17.56256715,20.08255453,6.637501471,32.71864356,"A Dean John et al. Lange's handbook of chemistry. In Universitas Of Tennese Knoxville, Fifthenth Edition, Mc. Graw Hill Inc, New York. Conference, 1999."
2508,methyl formate,COC=O,288.78,0.003462844,0.3626,-0.4405722,0.952331239,0.14,23.5649901,9.715241176,17.51978772,20.03329257,6.622461445,32.76819802,"WE Wasburn. International critical tables of numerical data, physics, chemistry and technology. 1st electronic edition. Knovel: Norwich, NY, 2003."
2509,Methyl formate,COC=O,293.15,0.003411223,0.35,-0.455931956,0.948331408,0.12,23.59886139,9.628341534,17.42507953,19.90836908,6.581153395,32.79348515,"Dabir S Viswanath, Tushar K Ghosh, Dasika HL Prasad, Nidamarty VK Dutt, Kalipatnapu Y Rani, Dabir S Viswanath, Tushar K Ghosh, Dasika HL Prasad, Nidamarty VK Dutt, and Kalipatnapu Y Rani. Correlations and estimation of pure liquid viscosity.Viscosity of Liquids: Theory, Estimation, Experiment, and Data, pages 135-405, 2007."
2510,methyl formate,COC=O,293.3,0.003409478,0.3467,-0.460046158,0.943012377,0.15,23.64919802,9.583337565,17.31934138,19.79404718,6.546194449,32.81488119,"WE Wasburn. International critical tables of numerical data, physics, chemistry and technology. 1st electronic edition. Knovel: Norwich, NY, 2003."
2511,methyl formate,COC=O,298.67,0.003348177,0.3298,-0.481749349,0.929436517,0.17,23.75637624,9.416451172,17.05087506,19.47835237,6.452513241,33.01971287,"WE Wasburn. International critical tables of numerical data, physics, chemistry and technology. 1st electronic edition. Knovel: Norwich, NY, 2003."
2512,methyl formate,COC=O,302.4,0.003306878,0.319,-0.496209317,0.936599826,0.15,23.70036634,9.45633764,17.16376222,19.59647131,6.485839835,32.9350099,"WE Wasburn. International critical tables of numerical data, physics, chemistry and technology. 1st electronic edition. Knovel: Norwich, NY, 2003."
2513,methyl isobutyl ether,COCC(C)C,273.51,0.003656173,0.3797,-0.420559403,0.761281885,0.13,22.03751485,4.52246614,15.65826031,16.29849598,7.895087327,30.46824752,"WE Wasburn. International critical tables of numerical data, physics, chemistry and technology. 1st electronic edition. Knovel: Norwich, NY, 2003."
2514,methyl isobutyl ether,COCC(C)C,280.07,0.003570536,0.3526,-0.452717692,0.753938875,0.24,22.10727723,4.448388056,15.45879637,16.08630677,7.787693494,30.52369307,"WE Wasburn. International critical tables of numerical data, physics, chemistry and technology. 1st electronic edition. Knovel: Norwich, NY, 2003."
2515,methyl isobutyl ether,COCC(C)C,287.66,0.003476326,0.3246,-0.488651485,0.744490918,0.26,22.1989802,4.339109175,15.21304845,15.81994673,7.654047555,30.53358416,"WE Wasburn. International critical tables of numerical data, physics, chemistry and technology. 1st electronic edition. Knovel: Norwich, NY, 2003."
2516,Methyl-iso-butyl ether,COCC(C)C,294.15,0.003399626,0.3,-0.522878745,0.746219111,0.23,22.18433663,4.334027395,15.21885132,15.82417873,7.654326595,30.59685149,"Dabir S Viswanath, Tushar K Ghosh, Dasika HL Prasad, Nidamarty VK Dutt, Kalipatnapu Y Rani, Dabir S Viswanath, Tushar K Ghosh, Dasika HL Prasad, Nidamarty VK Dutt, and Kalipatnapu Y Rani. Correlations and estimation of pure liquid viscosity.Viscosity of Liquids: Theory, Estimation, Experiment, and Data, pages 135-405, 2007."
2517,methyl isobutyl ether,COCC(C)C,294.5,0.003395586,0.3022,-0.51970554,0.734933176,0.28,22.29177228,4.244031066,14.9646734,15.55504371,7.521487472,30.75422772,"WE Wasburn. International critical tables of numerical data, physics, chemistry and technology. 1st electronic edition. Knovel: Norwich, NY, 2003."
2518,methyl isobutyl ether,COCC(C)C,302.04,0.00331082,0.28,-0.552841969,0.724974554,0.43,22.39536634,4.159029862,14.70252757,15.27969198,7.385029635,30.87061386,"WE Wasburn. International critical tables of numerical data, physics, chemistry and technology. 1st electronic edition. Knovel: Norwich, NY, 2003."
2519,methyl isobutyl ether,COCC(C)C,309.13,0.003234885,0.262,-0.581698709,0.726017889,0.51,22.38853465,4.119442358,14.69896934,15.26557303,7.376859913,30.87710891,"WE Wasburn. International critical tables of numerical data, physics, chemistry and technology. 1st electronic edition. Knovel: Norwich, NY, 2003."
2520,methyl isobutyl ether,COCC(C)C,315.7,0.003167564,0.2458,-0.609418121,0.712555977,0.62,22.52348515,4.000982946,14.37547332,14.92211368,7.211110891,31.12713861,"WE Wasburn. International critical tables of numerical data, physics, chemistry and technology. 1st electronic edition. Knovel: Norwich, NY, 2003."
2521,methyl isobutyl ether,COCC(C)C,322.9,0.003096934,0.2305,-0.63732907,0.701577228,0.73,22.64075248,3.9126097,14.094966,14.62822937,7.067661791,31.15746535,"WE Wasburn. International critical tables of numerical data, physics, chemistry and technology. 1st electronic edition. Knovel: Norwich, NY, 2003."
2522,methyl isobutyl ether,COCC(C)C,328.37,0.003045345,0.2192,-0.65915945,0.70161411,0.84,22.6380297,3.870860061,14.07428921,14.59709769,7.050874669,31.18908911,"WE Wasburn. International critical tables of numerical data, physics, chemistry and technology. 1st electronic edition. Knovel: Norwich, NY, 2003."
2523,Dimethenamid-p,COCC(C)N(C(=O)CCl)c1c(C)csc1C,298.15,0.003354016,25.6,1.408239965,1.183855785,0.01,22.28023762,8.362650488,18.63712777,20.42748072,23.82671203,26.58664356,"Sunghwan Kim, Paul A Thiessen, Tiejun Cheng, Jian Zhang, Asta Gindulyte, and Evan E Bolton. Pug-view: programmatic access to chemical annotations integrated in pubchem. Journal of cheminformatics, 11(1):1-11, 2019."
2524,1-methoxy-2-hydroxypropane,COCC(C)O,293.15,0.003411223,1.81,0.257678575,0.923679264,0.05,21.63386139,14.85742694,16.80337905,22.43035295,12.31516119,29.90515842,"Sunghwan Kim, Paul A Thiessen, Tiejun Cheng, Jian Zhang, Asta Gindulyte, and Evan E Bolton. Pug-view: programmatic access to chemical annotations integrated in pubchem. Journal of cheminformatics, 11(1):1-11, 2019."
2525,propylene glycol methyl ether,COCC(C)O,298.15,0.003354016,1.68,0.225309282,0.909329084,0.08,21.74631683,14.49746788,16.51634543,21.97706871,12.03350357,30.05251485,"Valentin Goussard, Francois Duprat, Jean-Luc Ploix, G erard Dreyfus, Veronique Nardello-Rataj, and Jean-Marie Aubry. A new machine-learning tool for fast estimation of liquid viscosity. application to cosmetic oils. Journal of Chemical Information and Modeling, 60(4):2012-2023, 2020."
2526,propylene glycol monomethyl ether acetate,COCC(C)OC(C)=O,298.1,0.003354579,1.06,0.025305865,0.982412372,0.05,21.99358416,8.323326519,17.91237693,19.75187567,13.13618524,30.24694059,"Diego Alonso Saldana, Laurie Starck, Pascal Mougin, Bernard Rousseau, Nicolas Ferrando, and Benoit Creton. Prediction of density and viscosity of biofuel compounds using machine learning methods. Energy & fuels, 26(4):2416-2426, 2012."
2527,1-chloro-2-methoxyethane,COCCCl,324.15,0.003084992,0.591561634,-0.228,1.003655487,0.23,23.53563366,11.2025552,16.48777888,19.93365571,9.589913315,32.56225743,"Marina Cocchi, Pier Giuseppe De Benedetti, Renato Seeber, Lorenzo Tassi, and Alessandro Ulrici. Development of quantitative structure- property relationships using calculated descriptors for the prediction of the physicochemical properties of a series of organic solvents. Journal of chemical information and computer sciences, 39(6):1190-1203, 1999."
2528,2-Methoxyethanol,COCCO,293.15,0.003411223,1.71,0.23299611,0.944261801,0.08,21.76189109,18.46225965,16.65383587,24.8641112,12.4900949,30.13449505,"A Dean John et al. Lange's handbook of chemistry. In Universitas Of Tennese Knoxville, Fifthenth Edition, Mc. Graw Hill Inc, New York. Conference, 1999."
2529,"1,2-Dimethoxyethane",COCCOC,283.15,0.003531697,0.67,-0.173925197,0.880913381,0.1,21.98143564,9.769511317,16.96376349,19.57604945,9.93310448,30.35968317,"A Dean John et al. Lange's handbook of chemistry. In Universitas Of Tennese Knoxville, Fifthenth Edition, Mc. Graw Hill Inc, New York. Conference, 1999."
2530,"1,2-dimethoxyethane",COCCOC,336.15,0.002974862,0.418793565,-0.378,0.808210748,0.48,22.61366337,8.37003775,15.23975664,17.38723326,8.725111698,31.23338614,"Marina Cocchi, Pier Giuseppe De Benedetti, Renato Seeber, Lorenzo Tassi, and Alessandro Ulrici. Development of quantitative structure- property relationships using calculated descriptors for the prediction of the physicochemical properties of a series of organic solvents. Journal of chemical information and computer sciences, 39(6):1190-1203, 1999."
2531,Methyl cellosolve acetate,COCCOC(C)=O,298.15,0.003354016,1.1,0.041392685,1.018212618,0.04,22.04887129,10.32144263,18.47344131,21.16142821,13.00984018,30.48959406,"Sunghwan Kim, Paul A Thiessen, Tiejun Cheng, Jian Zhang, Asta Gindulyte, and Evan E Bolton. Pug-view: programmatic access to chemical annotations integrated in pubchem. Journal of cheminformatics, 11(1):1-11, 2019."
2532,2-(2-methoxyethoxy)ethanol,COCCOCCO,298.1,0.003354579,4.1,0.612783857,1.011994334,0.02,21.43817822,16.78849724,17.69874438,24.39495591,17.47933886,29.50175248,"Diego Alonso Saldana, Laurie Starck, Pascal Mougin, Bernard Rousseau, Nicolas Ferrando, and Benoit Creton. Prediction of density and viscosity of biofuel compounds using machine learning methods. Energy & fuels, 26(4):2416-2426, 2012."
2533,2-(2-Methoxyethoxy)ethanol,COCCOCCO,333.15,0.003001651,1.61,0.206825876,0.979648916,0.03,21.67647525,15.71337886,17.00555633,23.1542092,16.37724145,29.90586139,"A Dean John et al. Lange's handbook of chemistry. In Universitas Of Tennese Knoxville, Fifthenth Edition, Mc. Graw Hill Inc, New York. Conference, 1999."
2534,Diethylene glycol dimethyl ether,COCCOCCOC,293.15,0.003411223,1.089,0.03702788,0.954018427,0.05,21.65792079,10.19295241,17.58233838,20.32346737,14.46674818,29.81924752,"Sunghwan Kim, Paul A Thiessen, Tiejun Cheng, Jian Zhang, Asta Gindulyte, and Evan E Bolton. Pug-view: programmatic access to chemical annotations integrated in pubchem. Journal of cheminformatics, 11(1):1-11, 2019."
2535,Diethylene glycol dimethyl ether,COCCOCCOC,298.15,0.003354016,0.98,-0.008773924,0.936588785,0.07,21.79575248,9.887196862,17.20960306,19.84789539,14.08104381,30.09223762,"Valentin Goussard, Francois Duprat, Jean-Luc Ploix, G erard Dreyfus, Veronique Nardello-Rataj, and Jean-Marie Aubry. A new machine-learning tool for fast estimation of liquid viscosity. application to cosmetic oils. Journal of Chemical Information and Modeling, 60(4):2012-2023, 2020."
2536,triethylene glycol monomethyl ether,COCCOCCOCCO,293.1,0.003411805,7.27,0.861534411,1.050595031,0.02,21.27430693,15.91638272,18.24603214,24.2128659,22.48253712,27.64120792,"Diego Alonso Saldana, Laurie Starck, Pascal Mougin, Bernard Rousseau, Nicolas Ferrando, and Benoit Creton. Prediction of density and viscosity of biofuel compounds using machine learning methods. Energy & fuels, 26(4):2416-2426, 2012."
2537,triethylene glycol monomethyl ether,COCCOCCOCCO,298.1,0.003354579,6.48,0.811575006,1.047471615,0.01,21.29715842,15.79776985,18.16975267,24.07753987,22.31304218,28.13067327,"Diego Alonso Saldana, Laurie Starck, Pascal Mougin, Bernard Rousseau, Nicolas Ferrando, and Benoit Creton. Prediction of density and viscosity of biofuel compounds using machine learning methods. Energy & fuels, 26(4):2416-2426, 2012."
2538,triethylene glycol monomethyl ether,COCCOCCOCCO,308.1,0.003245699,4.64,0.666517981,1.035146175,0.02,21.38452475,15.41560824,17.90389628,23.6263531,21.77539042,29.25254455,"Diego Alonso Saldana, Laurie Starck, Pascal Mougin, Bernard Rousseau, Nicolas Ferrando, and Benoit Creton. Prediction of density and viscosity of biofuel compounds using machine learning methods. Energy & fuels, 26(4):2416-2426, 2012."
2539,triethylene glycol monomethyl ether,COCCOCCOCCO,313.1,0.003193868,4.08,0.610660163,1.024051809,0.04,21.45862376,15.16231022,17.66026897,23.27656738,21.38594068,29.49446535,"Diego Alonso Saldana, Laurie Starck, Pascal Mougin, Bernard Rousseau, Nicolas Ferrando, and Benoit Creton. Prediction of density and viscosity of biofuel compounds using machine learning methods. Energy & fuels, 26(4):2416-2426, 2012."
2540,triethylene glycol monomethyl ether,COCCOCCOCCO,323.1,0.003095017,3.2,0.505149978,1.020585056,0.03,21.48309901,14.97064295,17.56023303,23.07602671,21.11890178,29.43849505,"Diego Alonso Saldana, Laurie Starck, Pascal Mougin, Bernard Rousseau, Nicolas Ferrando, and Benoit Creton. Prediction of density and viscosity of biofuel compounds using machine learning methods. Energy & fuels, 26(4):2416-2426, 2012."
2541,triethylene glycol monomethyl ether,COCCOCCOCCO,333.1,0.003002101,2.61,0.416640507,1.012810804,0.1,21.54649505,14.71128851,17.3811718,22.77167223,20.75528311,29.7489703,"Diego Alonso Saldana, Laurie Starck, Pascal Mougin, Bernard Rousseau, Nicolas Ferrando, and Benoit Creton. Prediction of density and viscosity of biofuel compounds using machine learning methods. Energy & fuels, 26(4):2416-2426, 2012."
2542,triethylene glycol monomethyl ether,COCCOCCOCCO,343.1,0.002914602,2.11,0.324282455,0.993490846,0.06,21.68066337,14.24177396,16.9737974,22.15752017,20.07584354,29.81839604,"Diego Alonso Saldana, Laurie Starck, Pascal Mougin, Bernard Rousseau, Nicolas Ferrando, and Benoit Creton. Prediction of density and viscosity of biofuel compounds using machine learning methods. Energy & fuels, 26(4):2416-2426, 2012."
2543,tetraethylene glycol monomethyl ether,COCCOCCOCCOCCO,293.1,0.003411805,3.26,0.5132176,1.062395823,0.01,21.25409901,14.99461779,18.28718863,23.64909422,26.78553978,26.83007921,"Diego Alonso Saldana, Laurie Starck, Pascal Mougin, Bernard Rousseau, Nicolas Ferrando, and Benoit Creton. Prediction of density and viscosity of biofuel compounds using machine learning methods. Energy & fuels, 26(4):2416-2426, 2012."
2544,tetraethylene glycol dimethyl ether,COCCOCCOCCOCCOC,298.15,0.003354016,3.3,0.51851394,1.020594277,0.02,21.40886139,10.68343187,18.04898654,20.97415702,23.49224041,28.98758416,"Valentin Goussard, Francois Duprat, Jean-Luc Ploix, G erard Dreyfus, Veronique Nardello-Rataj, and Jean-Marie Aubry. A new machine-learning tool for fast estimation of liquid viscosity. application to cosmetic oils. Journal of Chemical Information and Modeling, 60(4):2012-2023, 2020."
2545,Dimethoxymethane,COCOC,288.15,0.003470415,0.34,-0.468521083,0.861563163,0.17,22.43577228,7.141022409,16.23132064,17.73290521,7.21064201,31.04819802,"A Dean John et al. Lange's handbook of chemistry. In Universitas Of Tennese Knoxville, Fifthenth Edition, Mc. Graw Hill Inc, New York. Conference, 1999."
2546,Dimethoxymethane,COCOC,293.15,0.003411223,0.325,-0.488116639,0.846115878,0.33,22.57476238,6.970389164,15.88968772,17.35151317,7.054145524,31.28808911,"A Dean John et al. Lange's handbook of chemistry. In Universitas Of Tennese Knoxville, Fifthenth Edition, Mc. Graw Hill Inc, New York. Conference, 1999."
2547,Dimethoxymethane,COCOC,298.15,0.003354016,0.34,-0.468521083,0.848247478,0.25,22.54142574,6.972222837,15.92612919,17.3857227,7.073304201,31.17070297,"Valentin Goussard, Francois Duprat, Jean-Luc Ploix, G erard Dreyfus, Veronique Nardello-Rataj, and Jean-Marie Aubry. A new machine-learning tool for fast estimation of liquid viscosity. application to cosmetic oils. Journal of Chemical Information and Modeling, 60(4):2012-2023, 2020."