Index,Name,CANON_SMILES,Temperature (K),Inverse temperature (1/K),Viscosity (cP),log(Viscosity),MD_density,MD_FV,MD_Rg,MD_SP_E,MD_SP_V,MD_SP,MD_HV,MD_RMSD,Reference
1842,1-butanol,CCCCO,318.1,0.003143666,1.58,0.198657087,0.777558059,0.26,21.93950495,16.00725702,14.75197744,21.76863421,11.42894395,30.30129703,"Diego Alonso Saldana, Laurie Starck, Pascal Mougin, Bernard Rousseau, Nicolas Ferrando, and Benoit Creton. Prediction of density and viscosity of biofuel compounds using machine learning methods. Energy & fuels, 26(4):2416-2426, 2012."
1843,1-butanol,CCCCO,323.1,0.003095017,1.39,0.1430148,0.775159735,0.28,21.97135644,15.87021467,14.7094924,21.63916313,11.34379423,30.31851485,"Diego Alonso Saldana, Laurie Starck, Pascal Mougin, Bernard Rousseau, Nicolas Ferrando, and Benoit Creton. Prediction of density and viscosity of biofuel compounds using machine learning methods. Energy & fuels, 26(4):2416-2426, 2012."
1844,n-butyl alcohol,CCCCO,325.32,0.003073896,1.344,0.128399269,0.768101075,0.32,22.02326733,15.73835263,14.55169607,21.43521814,11.24394586,30.46015842,"WE Wasburn. International critical tables of numerical data, physics, chemistry and technology. 1st electronic edition. Knovel: Norwich, NY, 2003."
1845,1-butanol,CCCCO,328.1,0.003047851,1.25,0.096910013,0.765716316,0.32,22.06618812,15.620068,14.50134913,21.31422691,11.16280371,30.45484158,"Diego Alonso Saldana, Laurie Starck, Pascal Mougin, Bernard Rousseau, Nicolas Ferrando, and Benoit Creton. Prediction of density and viscosity of biofuel compounds using machine learning methods. Energy & fuels, 26(4):2416-2426, 2012."
1846,n-butyl alcohol,CCCCO,335.14,0.002983828,1.09,0.037426498,0.764370259,0.41,22.06191089,15.42110349,14.48915677,21.16056304,11.04405684,30.49688119,"WE Wasburn. International critical tables of numerical data, physics, chemistry and technology. 1st electronic edition. Knovel: Norwich, NY, 2003."
1847,n-butyl alcohol,CCCCO,345.39,0.002895278,0.886,-0.052566278,0.746953675,0.38,22.23746535,14.88612435,14.16037377,20.54596287,10.69848981,30.76583168,"WE Wasburn. International critical tables of numerical data, physics, chemistry and technology. 1st electronic edition. Knovel: Norwich, NY, 2003."
1848,n-butyl alcohol,CCCCO,356.28,0.002806781,0.7183,-0.143694134,0.744905843,0.45,22.2510198,14.58284254,14.1330963,20.3082524,10.51668909,30.6860099,"WE Wasburn. International critical tables of numerical data, physics, chemistry and technology. 1st electronic edition. Knovel: Norwich, NY, 2003."
1849,n-butyl alcohol,CCCCO,368.03,0.00271717,0.5817,-0.235300936,0.728997168,0.72,22.41547525,14.04969033,13.81932902,19.70762893,10.17007968,30.87142574,"WE Wasburn. International critical tables of numerical data, physics, chemistry and technology. 1st electronic edition. Knovel: Norwich, NY, 2003."
1850,n-butyl alcohol,CCCCO,376.11,0.002658797,0.5096,-0.292770581,0.708405836,0.97,22.63123762,13.45650104,13.41702082,19.00322193,9.778576734,31.16285149,"WE Wasburn. International critical tables of numerical data, physics, chemistry and technology. 1st electronic edition. Knovel: Norwich, NY, 2003."
1851,n-butyl alcohol,CCCCO,387.26,0.002582244,0.4259,-0.37069236,0.694746996,1.43,22.78336634,12.95429643,13.15170423,18.46092318,9.460224132,31.44653465,"WE Wasburn. International critical tables of numerical data, physics, chemistry and technology. 1st electronic edition. Knovel: Norwich, NY, 2003."
1852,Butyl methyl ether,CCCCOC,298.15,0.003354016,0.32,-0.494850022,0.723775902,0.49,22.40124752,4.383625934,14.88984047,15.5219497,7.605734982,30.9300198,"Valentin Goussard, Francois Duprat, Jean-Luc Ploix, G erard Dreyfus, Veronique Nardello-Rataj, and Jean-Marie Aubry. A new machine-learning tool for fast estimation of liquid viscosity. application to cosmetic oils. Journal of Chemical Information and Modeling, 60(4):2012-2023, 2020."
1853,dibutyl maleate,CCCCOC(=O)/C=C\C(=O)OCCCC,293.1,0.003411805,5.63,0.750508395,1.020132419,0.02,21.79677228,8.155121367,19.00465638,20.68065062,23.45764429,27.88671287,"Diego Alonso Saldana, Laurie Starck, Pascal Mougin, Bernard Rousseau, Nicolas Ferrando, and Benoit Creton. Prediction of density and viscosity of biofuel compounds using machine learning methods. Energy & fuels, 26(4):2416-2426, 2012."
1854,Dibutyl maleate,CCCCOC(=O)/C=C\C(=O)OCCCC,293.15,0.003411223,5.62,0.749736316,1.008974266,0.05,21.87641584,8.027409624,18.75374735,20.39979158,23.08679586,28.60575248,"A Dean John et al. Lange's handbook of chemistry. In Universitas Of Tennese Knoxville, Fifthenth Edition, Mc. Graw Hill Inc, New York. Conference, 1999."
1855,dibutyl maleate,CCCCOC(=O)/C=C\C(=O)OCCCC,298.1,0.003354579,4.76,0.677606953,1.005152158,0.04,21.90236634,8.049566736,18.68223216,20.34277038,23.0560738,28.84518812,"Diego Alonso Saldana, Laurie Starck, Pascal Mougin, Bernard Rousseau, Nicolas Ferrando, and Benoit Creton. Prediction of density and viscosity of biofuel compounds using machine learning methods. Energy & fuels, 26(4):2416-2426, 2012."
1856,Dibutyl maleate,CCCCOC(=O)/C=C\C(=O)OCCCC,298.15,0.003354016,4.76,0.677606953,1.01142359,0.02,21.86216832,8.04036204,18.80104976,20.44838312,23.14933354,28.79314851,"A Dean John et al. Lange's handbook of chemistry. In Universitas Of Tennese Knoxville, Fifthenth Edition, Mc. Graw Hill Inc, New York. Conference, 1999."
1857,Dibutylmaleate,CCCCOC(=O)C=CC(=O)OCCCC,298.15,0.003354016,4.6,0.662757832,1.000962298,0.04,21.93907921,5.636966292,19.0446029,19.86150167,22.09544805,29.31563366,"Valentin Goussard, Francois Duprat, Jean-Luc Ploix, G erard Dreyfus, Veronique Nardello-Rataj, and Jean-Marie Aubry. A new machine-learning tool for fast estimation of liquid viscosity. application to cosmetic oils. Journal of Chemical Information and Modeling, 60(4):2012-2023, 2020."
1858,butyl propanoate,CCCCOC(=O)CC,288.1,0.003471017,0.88,-0.055517328,0.897508481,0.07,21.87461386,5.243071436,17.58966962,18.35463113,12.25213604,30.23024752,"Diego Alonso Saldana, Laurie Starck, Pascal Mougin, Bernard Rousseau, Nicolas Ferrando, and Benoit Creton. Prediction of density and viscosity of biofuel compounds using machine learning methods. Energy & fuels, 26(4):2416-2426, 2012."
1859,butyl propanoate,CCCCOC(=O)CC,298.1,0.003354579,0.76,-0.119186408,0.879561536,0.09,22.0239703,5.076208685,17.15379853,17.88936768,11.91379607,30.34417822,"Diego Alonso Saldana, Laurie Starck, Pascal Mougin, Bernard Rousseau, Nicolas Ferrando, and Benoit Creton. Prediction of density and viscosity of biofuel compounds using machine learning methods. Energy & fuels, 26(4):2416-2426, 2012."
1860,butyl propanoate,CCCCOC(=O)CC,303.1,0.003299241,0.71,-0.148741651,0.872393661,0.11,22.09052475,5.001640019,16.97177203,17.69363662,11.76834067,30.4409901,"Diego Alonso Saldana, Laurie Starck, Pascal Mougin, Bernard Rousseau, Nicolas Ferrando, and Benoit Creton. Prediction of density and viscosity of biofuel compounds using machine learning methods. Energy & fuels, 26(4):2416-2426, 2012."
1861,"propane-1,2,3-tricarboxylic acid tributyl ester",CCCCOC(=O)CC(CC(=O)OCCCC)C(=O)OCCCC,298.15,0.003354016,13.2,1.120573931,1.005668215,0.06,21.65972277,5.618911845,17.59646134,18.47200845,28.52483235,27.94005941,"Valentin Goussard, Francois Duprat, Jean-Luc Ploix, G erard Dreyfus, Veronique Nardello-Rataj, and Jean-Marie Aubry. A new machine-learning tool for fast estimation of liquid viscosity. application to cosmetic oils. Journal of Chemical Information and Modeling, 60(4):2012-2023, 2020."
1862,butyl butanoate,CCCCOC(=O)CCC,298.1,0.003354579,0.98,-0.008773924,0.873002863,0.12,21.93641584,4.577554436,16.97935071,17.58577167,12.80258904,30.2430396,"Diego Alonso Saldana, Laurie Starck, Pascal Mougin, Bernard Rousseau, Nicolas Ferrando, and Benoit Creton. Prediction of density and viscosity of biofuel compounds using machine learning methods. Energy & fuels, 26(4):2416-2426, 2012."
1863,butyl butyrate,CCCCOC(=O)CCC,298.15,0.003354016,0.92,-0.036212173,0.8753899,0.07,21.92563366,4.603393996,17.03863199,17.64968076,12.85805368,30.26551485,"Valentin Goussard, Francois Duprat, Jean-Luc Ploix, G erard Dreyfus, Veronique Nardello-Rataj, and Jean-Marie Aubry. A new machine-learning tool for fast estimation of liquid viscosity. application to cosmetic oils. Journal of Chemical Information and Modeling, 60(4):2012-2023, 2020."
1864,butyl pentanoate,CCCCOC(=O)CCCC,273.1,0.003661662,1.79,0.252853031,0.898889513,0.04,21.60341584,4.486312542,17.69884508,18.25880865,14.56974395,29.84639604,"Diego Alonso Saldana, Laurie Starck, Pascal Mougin, Bernard Rousseau, Nicolas Ferrando, and Benoit Creton. Prediction of density and viscosity of biofuel compounds using machine learning methods. Energy & fuels, 26(4):2416-2426, 2012."
1865,butyl pentanoate,CCCCOC(=O)CCCC,283.1,0.003532321,1.47,0.167317335,0.877973471,0.07,21.76988119,4.322405595,17.18534273,17.72077536,14.08989036,29.90155446,"Diego Alonso Saldana, Laurie Starck, Pascal Mougin, Bernard Rousseau, Nicolas Ferrando, and Benoit Creton. Prediction of density and viscosity of biofuel compounds using machine learning methods. Energy & fuels, 26(4):2416-2426, 2012."
1866,butyl pentanoate,CCCCOC(=O)CCCC,293.1,0.003411805,1.23,0.089905111,0.877915105,0.05,21.77728713,4.289153916,17.12815525,17.65718726,14.01373049,29.96757426,"Diego Alonso Saldana, Laurie Starck, Pascal Mougin, Bernard Rousseau, Nicolas Ferrando, and Benoit Creton. Prediction of density and viscosity of biofuel compounds using machine learning methods. Energy & fuels, 26(4):2416-2426, 2012."
1867,Butyl valerate,CCCCOC(=O)CCCC,298.15,0.003354016,1.2,0.079181246,0.867377122,0.11,21.86950495,4.203118336,16.87114586,17.38707418,13.77423117,30.07238614,"Valentin Goussard, Francois Duprat, Jean-Luc Ploix, G erard Dreyfus, Veronique Nardello-Rataj, and Jean-Marie Aubry. A new machine-learning tool for fast estimation of liquid viscosity. application to cosmetic oils. Journal of Chemical Information and Modeling, 60(4):2012-2023, 2020."
1868,butyl pentanoate,CCCCOC(=O)CCCC,303.1,0.003299241,1.05,0.021189299,0.861714142,0.08,21.9140099,4.153264101,16.73067601,17.23870797,13.64521374,30.25708911,"Diego Alonso Saldana, Laurie Starck, Pascal Mougin, Bernard Rousseau, Nicolas Ferrando, and Benoit Creton. Prediction of density and viscosity of biofuel compounds using machine learning methods. Energy & fuels, 26(4):2416-2426, 2012."
1869,butyl pentanoate,CCCCOC(=O)CCCC,313.1,0.003193868,0.91,-0.040958608,0.852544817,0.16,21.98937624,4.070012846,16.48127725,16.97659064,13.40751508,30.27808911,"Diego Alonso Saldana, Laurie Starck, Pascal Mougin, Bernard Rousseau, Nicolas Ferrando, and Benoit Creton. Prediction of density and viscosity of biofuel compounds using machine learning methods. Energy & fuels, 26(4):2416-2426, 2012."
1870,butyl pentanoate,CCCCOC(=O)CCCC,333.1,0.003002101,0.7,-0.15490196,0.826868672,0.4,22.21178218,3.877445835,15.8385392,16.30650898,12.82418044,30.58064356,"Diego Alonso Saldana, Laurie Starck, Pascal Mougin, Bernard Rousseau, Nicolas Ferrando, and Benoit Creton. Prediction of density and viscosity of biofuel compounds using machine learning methods. Energy & fuels, 26(4):2416-2426, 2012."
1871,butyl pentanoate,CCCCOC(=O)CCCC,353.1,0.002832059,0.56,-0.251811973,0.815063642,0.33,22.32271287,3.757919461,15.49322774,15.94273143,12.49571112,30.8169505,"Diego Alonso Saldana, Laurie Starck, Pascal Mougin, Bernard Rousseau, Nicolas Ferrando, and Benoit Creton. Prediction of density and viscosity of biofuel compounds using machine learning methods. Energy & fuels, 26(4):2416-2426, 2012."
1872,butyl pentanoate,CCCCOC(=O)CCCC,373.1,0.002680247,0.45,-0.346787486,0.792486641,0.59,22.53494059,3.585516379,14.94874769,15.37305746,12.02009616,31.0940198,"Diego Alonso Saldana, Laurie Starck, Pascal Mougin, Bernard Rousseau, Nicolas Ferrando, and Benoit Creton. Prediction of density and viscosity of biofuel compounds using machine learning methods. Energy & fuels, 26(4):2416-2426, 2012."
1873,dibutyl sebacate,CCCCOC(=O)CCCCCCCCC(=O)OCCCC,273.1,0.003661662,18.9,1.276461804,0.957868607,0.01,21.35667327,4.790455418,18.19065183,18.8110479,28.30800696,27.48349505,"Diego Alonso Saldana, Laurie Starck, Pascal Mougin, Bernard Rousseau, Nicolas Ferrando, and Benoit Creton. Prediction of density and viscosity of biofuel compounds using machine learning methods. Energy & fuels, 26(4):2416-2426, 2012."
1874,dibutyl sebacate,CCCCOC(=O)CCCCCCCCC(=O)OCCCC,277.1,0.003608805,16.3,1.212187604,0.950483203,0.04,21.41382178,4.767478847,17.99096917,18.61209443,27.94296222,27.43377228,"Diego Alonso Saldana, Laurie Starck, Pascal Mougin, Bernard Rousseau, Nicolas Ferrando, and Benoit Creton. Prediction of density and viscosity of biofuel compounds using machine learning methods. Energy & fuels, 26(4):2416-2426, 2012."
1875,dibutyl sebacate,CCCCOC(=O)CCCCCCCCC(=O)OCCCC,293.1,0.003411805,9.36,0.971275849,0.943110689,0.03,21.4689505,4.649280528,17.76584483,18.36432232,27.45877161,28.27606931,"Diego Alonso Saldana, Laurie Starck, Pascal Mougin, Bernard Rousseau, Nicolas Ferrando, and Benoit Creton. Prediction of density and viscosity of biofuel compounds using machine learning methods. Energy & fuels, 26(4):2416-2426, 2012."
1876,dibutyl sebacate,CCCCOC(=O)CCCCCCCCC(=O)OCCCC,298.1,0.003354579,8.21,0.914343157,0.936375152,0.04,21.52380198,4.588480751,17.59416791,18.18290922,27.12988304,29.39584158,"Diego Alonso Saldana, Laurie Starck, Pascal Mougin, Bernard Rousseau, Nicolas Ferrando, and Benoit Creton. Prediction of density and viscosity of biofuel compounds using machine learning methods. Energy & fuels, 26(4):2416-2426, 2012."
1877,dibutyl sebacate,CCCCOC(=O)CCCCCCCCC(=O)OCCCC,301.1,0.003321156,7.22,0.858537198,0.935343237,0.04,21.52793069,4.581850899,17.53779326,18.12664697,27.00095532,29.68136634,"Diego Alonso Saldana, Laurie Starck, Pascal Mougin, Bernard Rousseau, Nicolas Ferrando, and Benoit Creton. Prediction of density and viscosity of biofuel compounds using machine learning methods. Energy & fuels, 26(4):2416-2426, 2012."
1878,dibutyl sebacate,CCCCOC(=O)CCCCCCCCC(=O)OCCCC,310.9,0.003216468,5.67,0.753583059,0.922680648,0.09,21.62258416,4.444409695,17.22904427,17.79325728,26.40734078,29.84278218,"Diego Alonso Saldana, Laurie Starck, Pascal Mougin, Bernard Rousseau, Nicolas Ferrando, and Benoit Creton. Prediction of density and viscosity of biofuel compounds using machine learning methods. Energy & fuels, 26(4):2416-2426, 2012."
1879,dibutyl sebacate,CCCCOC(=O)CCCCCCCCC(=O)OCCCC,311.0,0.003215434,5.52,0.741939078,0.927512356,0.04,21.58872277,4.485720048,17.33099019,17.90232388,26.58866244,29.92786139,"Diego Alonso Saldana, Laurie Starck, Pascal Mougin, Bernard Rousseau, Nicolas Ferrando, and Benoit Creton. Prediction of density and viscosity of biofuel compounds using machine learning methods. Energy & fuels, 26(4):2416-2426, 2012."
1880,dibutyl sebacate,CCCCOC(=O)CCCCCCCCC(=O)OCCCC,323.1,0.003095017,4.23,0.626340367,0.909819956,0.12,21.72739604,4.349788211,16.88913239,17.4404915,25.76931859,30.27213861,"Diego Alonso Saldana, Laurie Starck, Pascal Mougin, Bernard Rousseau, Nicolas Ferrando, and Benoit Creton. Prediction of density and viscosity of biofuel compounds using machine learning methods. Energy & fuels, 26(4):2416-2426, 2012."
1881,dibutyl sebacate,CCCCOC(=O)CCCCCCCCC(=O)OCCCC,327.6,0.003052503,3.91,0.592176757,0.9153801,0.08,21.68441584,4.343680365,16.99211777,17.53875862,25.90786671,30.03683168,"Diego Alonso Saldana, Laurie Starck, Pascal Mougin, Bernard Rousseau, Nicolas Ferrando, and Benoit Creton. Prediction of density and viscosity of biofuel compounds using machine learning methods. Energy & fuels, 26(4):2416-2426, 2012."
1882,dibutyl sebacate,CCCCOC(=O)CCCCCCCCC(=O)OCCCC,330.9,0.003022061,3.63,0.559906625,0.904572877,0.15,21.77787129,4.281568959,16.72386975,17.26350067,25.42027339,30.21346535,"Diego Alonso Saldana, Laurie Starck, Pascal Mougin, Bernard Rousseau, Nicolas Ferrando, and Benoit Creton. Prediction of density and viscosity of biofuel compounds using machine learning methods. Energy & fuels, 26(4):2416-2426, 2012."
1883,dibutyl sebacate,CCCCOC(=O)CCCCCCCCC(=O)OCCCC,343.1,0.002914602,2.84,0.45331834,0.902111435,0.09,21.795,4.243597735,16.64201863,17.17475587,25.2574178,30.15253465,"Diego Alonso Saldana, Laurie Starck, Pascal Mougin, Bernard Rousseau, Nicolas Ferrando, and Benoit Creton. Prediction of density and viscosity of biofuel compounds using machine learning methods. Energy & fuels, 26(4):2416-2426, 2012."
1884,dibutyl sebacate,CCCCOC(=O)CCCCCCCCC(=O)OCCCC,353.1,0.002832059,2.61,0.416640507,0.889165128,0.15,21.89512871,4.136045141,16.31657528,16.83290343,24.65240386,30.3559604,"Diego Alonso Saldana, Laurie Starck, Pascal Mougin, Bernard Rousseau, Nicolas Ferrando, and Benoit Creton. Prediction of density and viscosity of biofuel compounds using machine learning methods. Energy & fuels, 26(4):2416-2426, 2012."
1885,dibutyl sebacate,CCCCOC(=O)CCCCCCCCC(=O)OCCCC,371.1,0.002694691,1.81,0.257678575,0.877667069,0.2,21.98430693,4.022814842,15.98484626,16.48357063,24.00532861,30.63,"Diego Alonso Saldana, Laurie Starck, Pascal Mougin, Bernard Rousseau, Nicolas Ferrando, and Benoit Creton. Prediction of density and viscosity of biofuel compounds using machine learning methods. Energy & fuels, 26(4):2416-2426, 2012."
1886,di-n-butyl phthalate,CCCCOC(=O)c1ccccc1C(=O)OCCCC,293.1,0.003411805,19.91,1.29907126,1.059747527,0.01,21.84473267,6.447104723,18.77189408,19.8482835,25.31336842,26.84333663,"Diego Alonso Saldana, Laurie Starck, Pascal Mougin, Bernard Rousseau, Nicolas Ferrando, and Benoit Creton. Prediction of density and viscosity of biofuel compounds using machine learning methods. Energy & fuels, 26(4):2416-2426, 2012."
1887,di-n-butyl phthalate,CCCCOC(=O)c1ccccc1C(=O)OCCCC,298.1,0.003354579,16.47,1.216693599,1.055679841,0.02,21.86146535,6.394291289,18.67381221,19.73841694,25.14457381,26.62608911,"Diego Alonso Saldana, Laurie Starck, Pascal Mougin, Bernard Rousseau, Nicolas Ferrando, and Benoit Creton. Prediction of density and viscosity of biofuel compounds using machine learning methods. Energy & fuels, 26(4):2416-2426, 2012."
1888,di-n-butyl phthalate,CCCCOC(=O)c1ccccc1C(=O)OCCCC,303.2,0.003298153,13.43,1.128076013,1.047926993,0.02,21.91325743,6.333860612,18.47802053,19.5335789,24.8256451,27.04461386,"Diego Alonso Saldana, Laurie Starck, Pascal Mougin, Bernard Rousseau, Nicolas Ferrando, and Benoit Creton. Prediction of density and viscosity of biofuel compounds using machine learning methods. Energy & fuels, 26(4):2416-2426, 2012."
1889,Dibutyl o-phthalate,CCCCOC(=O)c1ccccc1C(=O)OCCCC,308.15,0.003245173,11.17,1.048053173,1.05330144,0.04,21.87807921,6.371738003,18.58428317,19.64636045,24.9909538,26.77287129,"A Dean John et al. Lange's handbook of chemistry. In Universitas Of Tennese Knoxville, Fifthenth Edition, Mc. Graw Hill Inc, New York. Conference, 1999."
1890,di-n-butyl phthalate,CCCCOC(=O)c1ccccc1C(=O)OCCCC,311.0,0.003215434,9.48,0.976808337,1.049214352,0.01,21.90873267,6.349896468,18.48487424,19.54526702,24.84035234,26.93649505,"Diego Alonso Saldana, Laurie Starck, Pascal Mougin, Bernard Rousseau, Nicolas Ferrando, and Benoit Creton. Prediction of density and viscosity of biofuel compounds using machine learning methods. Energy & fuels, 26(4):2416-2426, 2012."
1891,di-n-butyl phthalate,CCCCOC(=O)c1ccccc1C(=O)OCCCC,313.1,0.003193868,9.4,0.973127854,1.036236057,0.06,22.00454455,6.229018757,18.21903858,19.25460805,24.42391251,27.93172277,"Diego Alonso Saldana, Laurie Starck, Pascal Mougin, Bernard Rousseau, Nicolas Ferrando, and Benoit Creton. Prediction of density and viscosity of biofuel compounds using machine learning methods. Energy & fuels, 26(4):2416-2426, 2012."