Index,Name,CANON_SMILES,Temperature (K),Inverse temperature (1/K),Viscosity (cP),log(Viscosity),MD_density,MD_FV,MD_Rg,MD_SP_E,MD_SP_V,MD_SP,MD_HV,MD_RMSD,Reference
612,isopropylcyclopentane,CC(C)C1CCCC1,293.1,0.003411805,0.71,-0.148741651,0.778014439,0.21,21.54819802,0.673879935,15.80785629,15.82224637,9.212447969,29.6060495,"Diego Alonso Saldana, Laurie Starck, Pascal Mougin, Bernard Rousseau, Nicolas Ferrando, and Benoit Creton. Prediction of density and viscosity of biofuel compounds using machine learning methods. Energy & fuels, 26(4):2416-2426, 2012."
613,Isopropylcyclopentane,CC(C)C1CCCC1,298.15,0.003354016,0.65,-0.187086643,0.772020243,0.17,21.59224752,0.665604001,15.64905505,15.66323216,9.115531322,29.6419802,"Valentin Goussard, Francois Duprat, Jean-Luc Ploix, G erard Dreyfus, Veronique Nardello-Rataj, and Jean-Marie Aubry. A new machine-learning tool for fast estimation of liquid viscosity. application to cosmetic oils. Journal of Chemical Information and Modeling, 60(4):2012-2023, 2020."
614,isopropylcyclopentane,CC(C)C1CCCC1,313.1,0.003193868,0.56,-0.251811973,0.753224069,0.37,21.77769307,0.640643761,15.14909281,15.16268013,8.808531715,29.88138614,"Diego Alonso Saldana, Laurie Starck, Pascal Mougin, Bernard Rousseau, Nicolas Ferrando, and Benoit Creton. Prediction of density and viscosity of biofuel compounds using machine learning methods. Energy & fuels, 26(4):2416-2426, 2012."
615,Isopropylcyclohexane,CC(C)C1CCCCC1,298.15,0.003354016,0.98,-0.008773924,0.789667742,0.13,21.44093069,0.610588954,15.82388887,15.83568903,10.17420226,29.4050297,"Valentin Goussard, Francois Duprat, Jean-Luc Ploix, G erard Dreyfus, Veronique Nardello-Rataj, and Jean-Marie Aubry. A new machine-learning tool for fast estimation of liquid viscosity. application to cosmetic oils. Journal of Chemical Information and Modeling, 60(4):2012-2023, 2020."
616,Isobutyraldehyde,CC(C)C=O,301.35,0.003318401,0.5382,-0.269056307,0.790818889,0.16,22.66864356,9.450804481,16.59643722,19.09877795,8.547991849,31.35676238,"Sunghwan Kim, Paul A Thiessen, Tiejun Cheng, Jian Zhang, Asta Gindulyte, and Evan E Bolton. Pug-view: programmatic access to chemical annotations integrated in pubchem. Journal of cheminformatics, 11(1):1-11, 2019."
617,isobutyl bromide,CC(C)CBr,273.49,0.003656441,0.82,-0.086186148,1.344694185,0.04,22.95733663,6.078562306,17.51430516,18.53924763,8.914230421,31.8269703,"WE Wasburn. International critical tables of numerical data, physics, chemistry and technology. 1st electronic edition. Knovel: Norwich, NY, 2003."
618,isobutyl bromide,CC(C)CBr,280.55,0.003564427,0.745,-0.127843727,1.337052623,0.09,23.00073267,6.027975432,17.37780374,18.39369587,8.844441707,31.73348515,"WE Wasburn. International critical tables of numerical data, physics, chemistry and technology. 1st electronic edition. Knovel: Norwich, NY, 2003."
619,isobutyl bromide,CC(C)CBr,289.23,0.003457456,0.669,-0.174573882,1.317039742,0.11,23.12393069,5.902392683,17.05492303,18.04752288,8.673919762,31.92823762,"WE Wasburn. International critical tables of numerical data, physics, chemistry and technology. 1st electronic edition. Knovel: Norwich, NY, 2003."
620,isobutyl bromide,CC(C)CBr,296.86,0.003368591,0.611,-0.21395879,1.302618333,0.15,23.20057426,5.80714724,16.82279431,17.79700281,8.552993196,32.00820792,"WE Wasburn. International critical tables of numerical data, physics, chemistry and technology. 1st electronic edition. Knovel: Norwich, NY, 2003."
621,1-Bromo-2-methyl propane,CC(C)CBr,297.15,0.003365304,0.61,-0.214670165,1.30581718,0.12,23.1790198,5.834481839,16.869254,17.84985712,8.581324421,32.07529703,"Dabir S Viswanath, Tushar K Ghosh, Dasika HL Prasad, Nidamarty VK Dutt, Kalipatnapu Y Rani, Dabir S Viswanath, Tushar K Ghosh, Dasika HL Prasad, Nidamarty VK Dutt, and Kalipatnapu Y Rani. Correlations and estimation of pure liquid viscosity.Viscosity of Liquids: Theory, Estimation, Experiment, and Data, pages 135-405, 2007."
622,isobutyl bromide,CC(C)CBr,305.32,0.003275252,0.556,-0.254925208,1.293492495,0.18,23.26151485,5.758017874,16.65231548,17.61984343,8.467134788,32.15381188,"WE Wasburn. International critical tables of numerical data, physics, chemistry and technology. 1st electronic edition. Knovel: Norwich, NY, 2003."
623,isobutyl bromide,CC(C)CBr,313.49,0.003189894,0.51,-0.292429824,1.288316481,0.19,23.28454455,5.692629624,16.55457628,17.50611918,8.413398904,32.08685149,"WE Wasburn. International critical tables of numerical data, physics, chemistry and technology. 1st electronic edition. Knovel: Norwich, NY, 2003."
624,isobutyl bromide,CC(C)CBr,321.54,0.003110033,0.47,-0.327902142,1.270915707,0.24,23.38043564,5.583715782,16.27065731,17.20222611,8.264262061,32.34774257,"WE Wasburn. International critical tables of numerical data, physics, chemistry and technology. 1st electronic edition. Knovel: Norwich, NY, 2003."
625,isobutyl bromide,CC(C)CBr,329.29,0.003036837,0.435,-0.361510743,1.254456647,0.42,23.49788119,5.492137627,16.01210542,16.92797999,8.135364651,32.452,"WE Wasburn. International critical tables of numerical data, physics, chemistry and technology. 1st electronic edition. Knovel: Norwich, NY, 2003."
626,isobutyl bromide,CC(C)CBr,337.32,0.002964544,0.404,-0.393618635,1.245841871,0.28,23.55061386,5.43120378,15.8705755,16.77433221,8.066938766,32.54505941,"WE Wasburn. International critical tables of numerical data, physics, chemistry and technology. 1st electronic edition. Knovel: Norwich, NY, 2003."
627,isobutyl bromide,CC(C)CBr,345.72,0.002892514,0.373,-0.428291168,1.223149155,0.51,23.68191089,5.311604487,15.52058723,16.40449766,7.892306394,32.74806931,"WE Wasburn. International critical tables of numerical data, physics, chemistry and technology. 1st electronic edition. Knovel: Norwich, NY, 2003."
628,isobutyl bromide,CC(C)CBr,353.33,0.002830215,0.348,-0.458420756,1.207672626,0.63,23.79614851,5.236996239,15.28104394,16.15368277,7.778323637,32.86787129,"WE Wasburn. International critical tables of numerical data, physics, chemistry and technology. 1st electronic edition. Knovel: Norwich, NY, 2003."
629,isobutyl bromide,CC(C)CBr,361.08,0.002769469,0.323,-0.490797478,1.195071307,0.66,23.87452475,5.143099815,15.07996006,15.93302807,7.67432059,32.94575248,"WE Wasburn. International critical tables of numerical data, physics, chemistry and technology. 1st electronic edition. Knovel: Norwich, NY, 2003."
630,Diisobutyl ketone,CC(C)CC(=O)CC(C)C,294.2611111,0.003398342,0.896,-0.04769199,0.826323083,0.08,21.70635644,5.713125676,16.33449877,17.30496059,12.90522161,29.83022772,"Sunghwan Kim, Paul A Thiessen, Tiejun Cheng, Jian Zhang, Asta Gindulyte, and Evan E Bolton. Pug-view: programmatic access to chemical annotations integrated in pubchem. Journal of cheminformatics, 11(1):1-11, 2019."
631,"2,6-Dimethyl-4-heptanone",CC(C)CC(=O)CC(C)C,298.15,0.003354016,0.84,-0.075720714,0.814442729,0.2,21.80334653,5.613725039,16.03895727,16.99318214,12.64631819,29.97918812,"Valentin Goussard, Francois Duprat, Jean-Luc Ploix, G erard Dreyfus, Veronique Nardello-Rataj, and Jean-Marie Aubry. A new machine-learning tool for fast estimation of liquid viscosity. application to cosmetic oils. Journal of Chemical Information and Modeling, 60(4):2012-2023, 2020."
632,3-Methylbutanoic acid,CC(C)CC(=O)O,288.15,0.003470415,2.731,0.4363217,0.966361964,0.05,21.77979208,17.04769534,17.70622917,24.57937354,15.83338424,29.74918812,"A Dean John et al. Lange's handbook of chemistry. In Universitas Of Tennese Knoxville, Fifthenth Edition, Mc. Graw Hill Inc, New York. Conference, 1999."
633,isovaleric acid,CC(C)CC(=O)O,298.15,0.003354016,2.0,0.301029996,0.955896802,0.05,21.86363366,16.80035627,17.46014364,24.23054786,15.58556691,30.10816832,"Valentin Goussard, Francois Duprat, Jean-Luc Ploix, G erard Dreyfus, Veronique Nardello-Rataj, and Jean-Marie Aubry. A new machine-learning tool for fast estimation of liquid viscosity. application to cosmetic oils. Journal of Chemical Information and Modeling, 60(4):2012-2023, 2020."
634,"2,4-dimethylpentane",CC(C)CC(C)C,293.1,0.003411805,0.49,-0.30980392,0.681304617,0.52,21.9810495,0.512663833,14.41396169,14.42310253,7.895062647,30.27879208,"Diego Alonso Saldana, Laurie Starck, Pascal Mougin, Bernard Rousseau, Nicolas Ferrando, and Benoit Creton. Prediction of density and viscosity of biofuel compounds using machine learning methods. Energy & fuels, 26(4):2416-2426, 2012."
635,"2,4-Dimethylpentane",CC(C)CC(C)C,293.15,0.003411223,0.361,-0.442492798,0.681623743,0.44,21.97721782,0.518700172,14.42605312,14.43541381,7.904227631,30.14549505,"A Dean John et al. Lange's handbook of chemistry. In Universitas Of Tennese Knoxville, Fifthenth Edition, Mc. Graw Hill Inc, New York. Conference, 1999."
636,"2,4-dimethylpentane",CC(C)CC(C)C,322.15,0.003104144,0.360578643,-0.443,0.664948199,0.81,22.16427723,0.499248676,13.9179273,13.92691066,7.626006988,30.44274257,"Marina Cocchi, Pier Giuseppe De Benedetti, Renato Seeber, Lorenzo Tassi, and Alessandro Ulrici. Development of quantitative structure- property relationships using calculated descriptors for the prediction of the physicochemical properties of a series of organic solvents. Journal of chemical information and computer sciences, 39(6):1190-1203, 1999."
637,Isobutylcyclopentane,CC(C)CC1CCCC1,298.15,0.003354016,0.5,-0.301029996,0.781935212,0.13,21.51490099,0.690522951,15.84565508,15.86072751,10.29960059,29.49228713,"Valentin Goussard, Francois Duprat, Jean-Luc Ploix, G erard Dreyfus, Veronique Nardello-Rataj, and Jean-Marie Aubry. A new machine-learning tool for fast estimation of liquid viscosity. application to cosmetic oils. Journal of Chemical Information and Modeling, 60(4):2012-2023, 2020."
638,Isobutyleyclohexane,CC(C)CC1CCCCC1,298.15,0.003354016,1.12,0.049218023,0.791230371,0.13,21.41472277,0.651896859,15.79308596,15.80655959,11.17875348,29.36489109,"Valentin Goussard, Francois Duprat, Jean-Luc Ploix, G erard Dreyfus, Veronique Nardello-Rataj, and Jean-Marie Aubry. A new machine-learning tool for fast estimation of liquid viscosity. application to cosmetic oils. Journal of Chemical Information and Modeling, 60(4):2012-2023, 2020."
639,3-methylbutanal,CC(C)CC=O,293.15,0.003411223,0.58,-0.236572006,0.810202,0.16,22.25865347,8.611147785,16.63921783,18.73555391,9.501684918,30.64157426,"Sunghwan Kim, Paul A Thiessen, Tiejun Cheng, Jian Zhang, Asta Gindulyte, and Evan E Bolton. Pug-view: programmatic access to chemical annotations integrated in pubchem. Journal of cheminformatics, 11(1):1-11, 2019."
640,Isovaleraldehyde,CC(C)CC=O,298.15,0.003354016,0.53,-0.27572413,0.80790547,0.12,22.28966337,8.551147546,16.56471081,18.64181638,9.447695626,30.70672277,"Valentin Goussard, Francois Duprat, Jean-Luc Ploix, G erard Dreyfus, Veronique Nardello-Rataj, and Jean-Marie Aubry. A new machine-learning tool for fast estimation of liquid viscosity. application to cosmetic oils. Journal of Chemical Information and Modeling, 60(4):2012-2023, 2020."
641,4-Methylpentanenitrile,CC(C)CCC#N,293.15,0.003411223,0.98,-0.008773924,0.781986313,0.23,22.5580099,9.550523846,15.15476046,17.91319171,10.11146783,31.01269307,"A Dean John et al. Lange's handbook of chemistry. In Universitas Of Tennese Knoxville, Fifthenth Edition, Mc. Graw Hill Inc, New York. Conference, 1999."
642,4-Methylpentanenitrile,CC(C)CCC#N,303.15,0.003298697,0.843,-0.074172425,0.774953103,0.24,22.62580198,9.418381945,14.9728456,17.68884732,9.978496779,31.19066337,"A Dean John et al. Lange's handbook of chemistry. In Universitas Of Tennese Knoxville, Fifthenth Edition, Mc. Graw Hill Inc, New York. Conference, 1999."
643,"2,5-dimethylhexane",CC(C)CCC(C)C,273.1,0.003661662,0.37,-0.431798276,0.720107003,0.17,21.64536634,0.57600855,15.29947141,15.31034316,9.429966475,29.66830693,"Diego Alonso Saldana, Laurie Starck, Pascal Mougin, Bernard Rousseau, Nicolas Ferrando, and Benoit Creton. Prediction of density and viscosity of biofuel compounds using machine learning methods. Energy & fuels, 26(4):2416-2426, 2012."
644,"2,5-dimethylhexane",CC(C)CCC(C)C,293.1,0.003411805,0.3,-0.522878745,0.706679267,0.38,21.78523762,0.558247332,14.89263367,14.90312433,9.163236022,29.9989703,"Diego Alonso Saldana, Laurie Starck, Pascal Mougin, Bernard Rousseau, Nicolas Ferrando, and Benoit Creton. Prediction of density and viscosity of biofuel compounds using machine learning methods. Energy & fuels, 26(4):2416-2426, 2012."
645,"2,5-dimethylhexane",CC(C)CCC(C)C,313.1,0.003193868,0.25,-0.602059991,0.677591791,0.71,22.09188119,0.523092234,14.10399856,14.11372316,8.648382241,30.31139604,"Diego Alonso Saldana, Laurie Starck, Pascal Mougin, Bernard Rousseau, Nicolas Ferrando, and Benoit Creton. Prediction of density and viscosity of biofuel compounds using machine learning methods. Energy & fuels, 26(4):2416-2426, 2012."
646,Pristane,CC(C)CCCC(C)CCCC(C)CCCC(C)C,298.15,0.003354016,5.0,0.698970004,0.782174693,0.15,21.31260396,0.599039057,15.53773402,15.54930361,20.43139332,28.70661386,"Sunghwan Kim, Paul A Thiessen, Tiejun Cheng, Jian Zhang, Asta Gindulyte, and Evan E Bolton. Pug-view: programmatic access to chemical annotations integrated in pubchem. Journal of cheminformatics, 11(1):1-11, 2019."
647,squalene,CC(C)CCCC(C)CCCC(C)CCCCC(C)CCCC(C)CCCC(C)C,303.15,0.003298697,22.504,1.352259719,0.811647388,0.08,21.11106931,0.619960558,15.83939138,15.85154872,31.88801477,26.41827723,"Vincent Burk, Stefan Pollak, Sergio E Quinones-Cisneros, and Kurt AG Schmidt. Complementary experimental data and extended density and viscosity reference models for squalane. Journal of Chemical & Engineering Data, 66(5):1992-2005, 2021."
648,squalene,CC(C)CCCC(C)CCCC(C)CCCCC(C)CCCC(C)CCCC(C)C,313.15,0.003193358,15.069,1.178084433,0.800590215,0.09,21.19634653,0.599746076,15.57052178,15.58209423,31.27086962,28.13319802,"Vincent Burk, Stefan Pollak, Sergio E Quinones-Cisneros, and Kurt AG Schmidt. Complementary experimental data and extended density and viscosity reference models for squalane. Journal of Chemical & Engineering Data, 66(5):1992-2005, 2021."
649,squalene,CC(C)CCCC(C)CCCC(C)CCCCC(C)CCCC(C)CCCC(C)C,323.15,0.003094538,10.631,1.026574118,0.788389049,0.18,21.31606931,0.584730934,15.20502698,15.21629494,30.32103434,28.62960396,"Vincent Burk, Stefan Pollak, Sergio E Quinones-Cisneros, and Kurt AG Schmidt. Complementary experimental data and extended density and viscosity reference models for squalane. Journal of Chemical & Engineering Data, 66(5):1992-2005, 2021."
650,squalene,CC(C)CCCC(C)CCCC(C)CCCCC(C)CCCC(C)CCCC(C)C,333.15,0.003001651,7.827,0.893595334,0.783936354,0.16,21.35488119,0.583184014,15.0669144,15.07822905,29.97046567,28.7849802,"Vincent Burk, Stefan Pollak, Sergio E Quinones-Cisneros, and Kurt AG Schmidt. Complementary experimental data and extended density and viscosity reference models for squalane. Journal of Chemical & Engineering Data, 66(5):1992-2005, 2021."
651,squalene,CC(C)CCCC(C)CCCC(C)CCCCC(C)CCCC(C)CCCC(C)C,343.15,0.002914177,5.974,0.776265218,0.782067422,0.21,21.37622772,0.579159882,14.96427171,14.97551082,29.66131426,28.80240594,"Vincent Burk, Stefan Pollak, Sergio E Quinones-Cisneros, and Kurt AG Schmidt. Complementary experimental data and extended density and viscosity reference models for squalane. Journal of Chemical & Engineering Data, 66(5):1992-2005, 2021."
652,squalene,CC(C)CCCC(C)CCCC(C)CCCCC(C)CCCC(C)CCCC(C)C,353.15,0.002831658,4.694,0.671543085,0.768957138,0.21,21.50139604,0.55739941,14.65173215,14.66235794,28.95558122,29.7750297,"Vincent Burk, Stefan Pollak, Sergio E Quinones-Cisneros, and Kurt AG Schmidt. Complementary experimental data and extended density and viscosity reference models for squalane. Journal of Chemical & Engineering Data, 66(5):1992-2005, 2021."
653,"2,7-dimethyloctane",CC(C)CCCCC(C)C,298.15,0.003354016,0.8278,-0.082074578,0.723074427,0.29,21.68944554,0.56377937,15.02972634,15.0403197,11.23147258,29.74064356,"WE Wasburn. International critical tables of numerical data, physics, chemistry and technology. 1st electronic edition. Knovel: Norwich, NY, 2003."
654,"2,7-dimethyloctane",CC(C)CCCCC(C)C,308.15,0.003245173,0.6702,-0.173795577,0.714137951,0.32,21.79168317,0.556454206,14.7731559,14.78366592,11.01996995,30.02578218,"WE Wasburn. International critical tables of numerical data, physics, chemistry and technology. 1st electronic edition. Knovel: Norwich, NY, 2003."
655,"2,7-dimethyloctane",CC(C)CCCCC(C)C,323.15,0.003094538,0.554,-0.256490235,0.706503262,0.32,21.85859406,0.545420475,14.53480644,14.54506096,10.8254114,30.00139604,"WE Wasburn. International critical tables of numerical data, physics, chemistry and technology. 1st electronic edition. Knovel: Norwich, NY, 2003."
656,"2,7-dimethyloctane",CC(C)CCCCC(C)C,338.15,0.002957267,0.4686,-0.329197716,0.69005281,0.62,22.04444554,0.521940734,14.0835244,14.09322839,10.46031716,30.19989109,"WE Wasburn. International critical tables of numerical data, physics, chemistry and technology. 1st electronic edition. Knovel: Norwich, NY, 2003."
657,diisodecyl phthalate,CC(C)CCCCCCCOC(=O)c1ccccc1C(=O)OCCCCCCCC(C)C,333.1,0.003002101,19.0,1.278753601,0.935064605,0.09,21.68232673,3.76661047,16.7829621,17.20073066,34.44129356,27.4759901,"Diego Alonso Saldana, Laurie Starck, Pascal Mougin, Bernard Rousseau, Nicolas Ferrando, and Benoit Creton. Prediction of density and viscosity of biofuel compounds using machine learning methods. Energy & fuels, 26(4):2416-2426, 2012."
658,diisodecyl phthalate,CC(C)CCCCCCCOC(=O)c1ccccc1C(=O)OCCCCCCCC(C)C,353.1,0.002832059,8.98,0.953276337,0.912464892,0.16,21.87130693,3.625661113,16.26865133,16.66806708,33.20692587,30.11637624,"Diego Alonso Saldana, Laurie Starck, Pascal Mougin, Bernard Rousseau, Nicolas Ferrando, and Benoit Creton. Prediction of density and viscosity of biofuel compounds using machine learning methods. Energy & fuels, 26(4):2416-2426, 2012."
659,diisononyl phthalate,CC(C)CCCCCCOC(=O)c1ccccc1C(=O)OCCCCCCC(C)C,318.1,0.003143666,21.04,1.323045735,0.960252027,0.08,21.63541584,4.16964969,17.30416483,17.79965903,33.64370851,27.27049505,"Diego Alonso Saldana, Laurie Starck, Pascal Mougin, Bernard Rousseau, Nicolas Ferrando, and Benoit Creton. Prediction of density and viscosity of biofuel compounds using machine learning methods. Energy & fuels, 26(4):2416-2426, 2012."
660,diisononyl phthalate,CC(C)CCCCCCOC(=O)c1ccccc1C(=O)OCCCCCCC(C)C,329.0,0.003039514,13.81,1.140193679,0.953285632,0.09,21.7070099,4.057223485,17.11843558,17.59285347,33.13832125,26.7000396,"Diego Alonso Saldana, Laurie Starck, Pascal Mougin, Bernard Rousseau, Nicolas Ferrando, and Benoit Creton. Prediction of density and viscosity of biofuel compounds using machine learning methods. Energy & fuels, 26(4):2416-2426, 2012."
661,diisononyl phthalate,CC(C)CCCCCCOC(=O)c1ccccc1C(=O)OCCCCCCC(C)C,338.9,0.002950723,9.91,0.996073655,0.946769811,0.08,21.72733663,3.961698069,16.90816311,17.36633987,32.54482293,28.27647525,"Diego Alonso Saldana, Laurie Starck, Pascal Mougin, Bernard Rousseau, Nicolas Ferrando, and Benoit Creton. Prediction of density and viscosity of biofuel compounds using machine learning methods. Energy & fuels, 26(4):2416-2426, 2012."
662,diisononyl phthalate,CC(C)CCCCCCOC(=O)c1ccccc1C(=O)OCCCCCCC(C)C,348.7,0.002867795,7.4,0.86923172,0.935445039,0.18,21.81685149,3.869578804,16.65641712,17.10028188,31.96946368,29.09281188,"Diego Alonso Saldana, Laurie Starck, Pascal Mougin, Bernard Rousseau, Nicolas Ferrando, and Benoit Creton. Prediction of density and viscosity of biofuel compounds using machine learning methods. Energy & fuels, 26(4):2416-2426, 2012."
663,diisononyl phthalate,CC(C)CCCCCCOC(=O)c1ccccc1C(=O)OCCCCCCC(C)C,358.6,0.002788622,5.71,0.756636108,0.92329706,0.13,21.91205941,3.797353106,16.34930987,16.78480788,31.24212039,29.60749505,"Diego Alonso Saldana, Laurie Starck, Pascal Mougin, Bernard Rousseau, Nicolas Ferrando, and Benoit Creton. Prediction of density and viscosity of biofuel compounds using machine learning methods. Energy & fuels, 26(4):2416-2426, 2012."