Index,Name,CANON_SMILES,Temperature (K),Inverse temperature (1/K),Viscosity (cP),log(Viscosity),MD_density,MD_FV,MD_Rg,MD_SP_E,MD_SP_V,MD_SP,MD_HV,MD_RMSD,Reference
1739,N-heptanethiol,CCCCCCCS,293.15,0.003411223,1.24,0.093421685,0.8521725,0.11,22.07539604,4.585869446,16.80144183,17.4162828,11.83499744,30.37876238,"Sunghwan Kim, Paul A Thiessen, Tiejun Cheng, Jian Zhang, Asta Gindulyte, and Evan E Bolton. Pug-view: programmatic access to chemical annotations integrated in pubchem. Journal of cheminformatics, 11(1):1-11, 2019."
1740,n-heptylbenzene,CCCCCCCc1ccccc1,288.1,0.003471017,0.69,-0.161150909,0.865924181,0.05,21.74093069,2.887057328,17.19400184,17.43489953,15.36446849,29.97231683,"Diego Alonso Saldana, Laurie Starck, Pascal Mougin, Bernard Rousseau, Nicolas Ferrando, and Benoit Creton. Prediction of density and viscosity of biofuel compounds using machine learning methods. Energy & fuels, 26(4):2416-2426, 2012."
1741,n-heptylbenzene,CCCCCCCc1ccccc1,293.1,0.003411805,0.65,-0.187086643,0.857834266,0.08,21.81280198,2.821451973,16.99291389,17.22585667,15.15800486,30.01954455,"Diego Alonso Saldana, Laurie Starck, Pascal Mougin, Bernard Rousseau, Nicolas Ferrando, and Benoit Creton. Prediction of density and viscosity of biofuel compounds using machine learning methods. Energy & fuels, 26(4):2416-2426, 2012."
1742,n-heptylbenzene,CCCCCCCc1ccccc1,298.1,0.003354579,0.61,-0.214670165,0.850516148,0.1,21.86683168,2.764358694,16.79700984,17.02323857,14.94954292,29.84983168,"Diego Alonso Saldana, Laurie Starck, Pascal Mougin, Bernard Rousseau, Nicolas Ferrando, and Benoit Creton. Prediction of density and viscosity of biofuel compounds using machine learning methods. Energy & fuels, 26(4):2416-2426, 2012."
1743,n-heptylbenzene,CCCCCCCc1ccccc1,303.1,0.003299241,0.57,-0.244125144,0.84466506,0.06,21.91409901,2.737005502,16.64547798,16.86927234,14.79863446,30.06740594,"Diego Alonso Saldana, Laurie Starck, Pascal Mougin, Bernard Rousseau, Nicolas Ferrando, and Benoit Creton. Prediction of density and viscosity of biofuel compounds using machine learning methods. Energy & fuels, 26(4):2416-2426, 2012."
1744,1-Hexanol,CCCCCCO,288.15,0.003470415,6.203,0.792601781,0.813276805,0.14,21.497,14.58276144,15.6868442,21.41840911,14.34781762,29.61209901,"A Dean John et al. Lange's handbook of chemistry. In Universitas Of Tennese Knoxville, Fifthenth Edition, Mc. Graw Hill Inc, New York. Conference, 1999."
1745,1-Hexanol,CCCCCCO,303.15,0.003298697,3.872,0.587935349,0.804614234,0.12,21.57729703,14.18676124,15.48492221,21.00167173,13.98940702,29.6910297,"A Dean John et al. Lange's handbook of chemistry. In Universitas Of Tennese Knoxville, Fifthenth Edition, Mc. Graw Hill Inc, New York. Conference, 1999."
1746,"propane-1,2,3-tricarboxylic acid trihexyl ester",CCCCCCOC(=O)CC(CC(=O)OCCCCCC)C(=O)OCCCCCC,298.15,0.003354016,19.9,1.298853076,0.968795234,0.02,21.55252475,4.508319078,17.27110449,17.85002965,34.28382796,27.36214851,"Valentin Goussard, Francois Duprat, Jean-Luc Ploix, G erard Dreyfus, Veronique Nardello-Rataj, and Jean-Marie Aubry. A new machine-learning tool for fast estimation of liquid viscosity. application to cosmetic oils. Journal of Chemical Information and Modeling, 60(4):2012-2023, 2020."
1747,dihexyl adipate,CCCCCCOC(=O)CCCCC(=O)OCCCCCC,293.1,0.003411805,9.14,0.960946196,0.939761892,0.05,21.49,4.594516715,17.63908229,18.2278417,27.15515997,28.69747525,"Diego Alonso Saldana, Laurie Starck, Pascal Mougin, Bernard Rousseau, Nicolas Ferrando, and Benoit Creton. Prediction of density and viscosity of biofuel compounds using machine learning methods. Energy & fuels, 26(4):2416-2426, 2012."
1748,dihexyl adipate,CCCCCCOC(=O)CCCCC(=O)OCCCCCC,303.1,0.003299241,5.39,0.731588765,0.934863123,0.04,21.5360396,4.530919086,17.46488615,18.04326852,26.77603672,29.71787129,"Diego Alonso Saldana, Laurie Starck, Pascal Mougin, Bernard Rousseau, Nicolas Ferrando, and Benoit Creton. Prediction of density and viscosity of biofuel compounds using machine learning methods. Energy & fuels, 26(4):2416-2426, 2012."
1749,dihexyl adipate,CCCCCCOC(=O)CCCCC(=O)OCCCCCC,323.1,0.003095017,2.78,0.444044796,0.918889717,0.07,21.65949505,4.352796713,17.03053792,17.57821454,25.9157948,29.86349505,"Diego Alonso Saldana, Laurie Starck, Pascal Mougin, Bernard Rousseau, Nicolas Ferrando, and Benoit Creton. Prediction of density and viscosity of biofuel compounds using machine learning methods. Energy & fuels, 26(4):2416-2426, 2012."
1750,decanedioic acid dihexyl ester,CCCCCCOC(=O)CCCCCCCCC(=O)OCCCCCC,298.15,0.003354016,12.8,1.10720997,0.918811555,0.06,21.45581188,3.923031995,17.37206818,17.80976035,31.16797758,28.8260099,"Valentin Goussard, Francois Duprat, Jean-Luc Ploix, G erard Dreyfus, Veronique Nardello-Rataj, and Jean-Marie Aubry. A new machine-learning tool for fast estimation of liquid viscosity. application to cosmetic oils. Journal of Chemical Information and Modeling, 60(4):2012-2023, 2020."
1751,carbonic acid dihexyl ester,CCCCCCOC(=O)OCCCCCC,298.15,0.003354016,3.6,0.556302501,0.907843475,0.04,21.59149505,4.526701345,17.53244638,18.10755267,20.47638343,29.93828713,"Valentin Goussard, Francois Duprat, Jean-Luc Ploix, G erard Dreyfus, Veronique Nardello-Rataj, and Jean-Marie Aubry. A new machine-learning tool for fast estimation of liquid viscosity. application to cosmetic oils. Journal of Chemical Information and Modeling, 60(4):2012-2023, 2020."
1752,hexyl ethanoate,CCCCCCOC(C)=O,288.1,0.003471017,1.25,0.096910013,0.886857784,0.05,21.82554455,4.946062032,17.28111614,17.97517922,13.13015656,30.19926733,"Diego Alonso Saldana, Laurie Starck, Pascal Mougin, Bernard Rousseau, Nicolas Ferrando, and Benoit Creton. Prediction of density and viscosity of biofuel compounds using machine learning methods. Energy & fuels, 26(4):2416-2426, 2012."
1753,hexyl ethanoate,CCCCCCOC(C)=O,293.1,0.003411805,1.17,0.068185862,0.879416028,0.13,21.88720792,4.881150975,17.09898899,17.78218908,12.97590332,30.12494059,"Diego Alonso Saldana, Laurie Starck, Pascal Mougin, Bernard Rousseau, Nicolas Ferrando, and Benoit Creton. Prediction of density and viscosity of biofuel compounds using machine learning methods. Energy & fuels, 26(4):2416-2426, 2012."
1754,hexyl ethanoate,CCCCCCOC(C)=O,298.1,0.003354579,1.08,0.033423755,0.880667031,0.08,21.86988119,4.849598673,17.11375204,17.78780359,12.97604178,30.19570297,"Diego Alonso Saldana, Laurie Starck, Pascal Mougin, Bernard Rousseau, Nicolas Ferrando, and Benoit Creton. Prediction of density and viscosity of biofuel compounds using machine learning methods. Energy & fuels, 26(4):2416-2426, 2012."
1755,hexyl ethanoate,CCCCCCOC(C)=O,303.1,0.003299241,0.97,-0.013228266,0.876946314,0.11,21.91055446,4.817948797,16.9959771,17.66589352,12.86864891,30.192,"Diego Alonso Saldana, Laurie Starck, Pascal Mougin, Bernard Rousseau, Nicolas Ferrando, and Benoit Creton. Prediction of density and viscosity of biofuel compounds using machine learning methods. Energy & fuels, 26(4):2416-2426, 2012."
1756,hexyl ethanoate,CCCCCCOC(C)=O,308.1,0.003245699,0.91,-0.040958608,0.871619334,0.1,21.94327723,4.75261146,16.86022313,17.51747618,12.74705928,30.22519802,"Diego Alonso Saldana, Laurie Starck, Pascal Mougin, Bernard Rousseau, Nicolas Ferrando, and Benoit Creton. Prediction of density and viscosity of biofuel compounds using machine learning methods. Energy & fuels, 26(4):2416-2426, 2012."
1757,hexyl ethanoate,CCCCCCOC(C)=O,323.1,0.003095017,0.74,-0.13076828,0.848095562,0.2,22.14058416,4.569985738,16.2813752,16.91078739,12.26456444,30.46044554,"Diego Alonso Saldana, Laurie Starck, Pascal Mougin, Bernard Rousseau, Nicolas Ferrando, and Benoit Creton. Prediction of density and viscosity of biofuel compounds using machine learning methods. Energy & fuels, 26(4):2416-2426, 2012."
1758,hexyl ethanoate,CCCCCCOC(C)=O,338.1,0.002957705,0.62,-0.207608311,0.847600236,0.16,22.16122772,4.491676876,16.21425575,16.82513681,12.18366823,30.57035644,"Diego Alonso Saldana, Laurie Starck, Pascal Mougin, Bernard Rousseau, Nicolas Ferrando, and Benoit Creton. Prediction of density and viscosity of biofuel compounds using machine learning methods. Energy & fuels, 26(4):2416-2426, 2012."
1759,hexyl ethanoate,CCCCCCOC(C)=O,353.1,0.002832059,0.52,-0.283996656,0.821001976,0.31,22.39738614,4.289083018,15.59038368,16.16984107,11.67870337,30.83435644,"Diego Alonso Saldana, Laurie Starck, Pascal Mougin, Bernard Rousseau, Nicolas Ferrando, and Benoit Creton. Prediction of density and viscosity of biofuel compounds using machine learning methods. Energy & fuels, 26(4):2416-2426, 2012."
1760,hexyl ethanoate,CCCCCCOC(C)=O,368.1,0.002716653,0.45,-0.346787486,0.81068349,0.47,22.48788119,4.188601743,15.30902812,15.87198915,11.44244958,30.94563366,"Diego Alonso Saldana, Laurie Starck, Pascal Mougin, Bernard Rousseau, Nicolas Ferrando, and Benoit Creton. Prediction of density and viscosity of biofuel compounds using machine learning methods. Energy & fuels, 26(4):2416-2426, 2012."
1761,hexyl methanoate,CCCCCCOC=O,288.1,0.003471017,1.12,0.049218023,0.881178463,0.07,22.01543564,4.686117169,17.27076042,17.8954207,11.88078303,30.43972277,"Diego Alonso Saldana, Laurie Starck, Pascal Mougin, Bernard Rousseau, Nicolas Ferrando, and Benoit Creton. Prediction of density and viscosity of biofuel compounds using machine learning methods. Energy & fuels, 26(4):2416-2426, 2012."
1762,Hexyl formate,CCCCCCOC=O,298.15,0.003354016,0.96,-0.017728767,0.865155277,0.14,22.14161386,4.538015862,16.87494696,17.47471459,11.57500108,30.5079505,"Valentin Goussard, Francois Duprat, Jean-Luc Ploix, G erard Dreyfus, Veronique Nardello-Rataj, and Jean-Marie Aubry. A new machine-learning tool for fast estimation of liquid viscosity. application to cosmetic oils. Journal of Chemical Information and Modeling, 60(4):2012-2023, 2020."
1763,hexyl methanoate,CCCCCCOC=O,303.1,0.003299241,0.88,-0.055517328,0.870511733,0.12,22.10950495,4.569002292,16.97399267,17.57839844,11.64720032,30.41812871,"Diego Alonso Saldana, Laurie Starck, Pascal Mougin, Bernard Rousseau, Nicolas Ferrando, and Benoit Creton. Prediction of density and viscosity of biofuel compounds using machine learning methods. Energy & fuels, 26(4):2416-2426, 2012."
1764,ethyl hexyl ether,CCCCCCOCC,298.15,0.003354016,0.929,-0.031984286,0.770151763,0.26,21.84226733,3.058564095,15.72370465,16.01871238,10.96301861,30.02266337,"WE Wasburn. International critical tables of numerical data, physics, chemistry and technology. 1st electronic edition. Knovel: Norwich, NY, 2003."
1765,ethyl hexyl ether,CCCCCCOCC,323.15,0.003094538,0.653,-0.185086819,0.735068507,0.33,22.18379208,2.794961842,14.79202925,15.05408849,10.23846213,30.55036634,"WE Wasburn. International critical tables of numerical data, physics, chemistry and technology. 1st electronic edition. Knovel: Norwich, NY, 2003."
1766,Ethylene Glycol Hexyl Ether,CCCCCCOCCO,298.15,0.003354016,4.5,0.653212514,0.868587489,0.09,21.54367327,11.38230664,16.3450363,19.91855555,16.55695469,29.63183168,"Valentin Goussard, Francois Duprat, Jean-Luc Ploix, G erard Dreyfus, Veronique Nardello-Rataj, and Jean-Marie Aubry. A new machine-learning tool for fast estimation of liquid viscosity. application to cosmetic oils. Journal of Chemical Information and Modeling, 60(4):2012-2023, 2020."
1767,Diethylene glycol hexyl ether,CCCCCCOCCOCCO,293.15,0.003411223,8.6,0.934498451,0.922881225,0.05,21.4019604,11.42219467,16.93613625,20.42857748,21.1483695,29.07362376,"Sunghwan Kim, Paul A Thiessen, Tiejun Cheng, Jian Zhang, Asta Gindulyte, and Evan E Bolton. Pug-view: programmatic access to chemical annotations integrated in pubchem. Journal of cheminformatics, 11(1):1-11, 2019."
1768,Diethylene Glycol Hexyl Ether,CCCCCCOCCOCCO,298.15,0.003354016,6.3,0.79934055,0.922231069,0.06,21.4099604,11.37886594,16.9064995,20.37971943,21.07443651,28.78872277,"Valentin Goussard, Francois Duprat, Jean-Luc Ploix, G erard Dreyfus, Veronique Nardello-Rataj, and Jean-Marie Aubry. A new machine-learning tool for fast estimation of liquid viscosity. application to cosmetic oils. Journal of Chemical Information and Modeling, 60(4):2012-2023, 2020."
1769,1-n-hexylnaphthalene,CCCCCCc1cccc2ccccc12,273.1,0.003661662,23.93,1.378942699,0.973720426,0.01,21.61167327,4.704605972,18.55039937,19.13779842,19.63155695,26.57055446,"Diego Alonso Saldana, Laurie Starck, Pascal Mougin, Bernard Rousseau, Nicolas Ferrando, and Benoit Creton. Prediction of density and viscosity of biofuel compounds using machine learning methods. Energy & fuels, 26(4):2416-2426, 2012."
1770,1-n-hexylnaphthalene,CCCCCCc1cccc2ccccc12,293.1,0.003411805,8.84,0.946452265,0.962540023,0.02,21.69268317,4.520650722,18.21772183,18.77039537,19.15872832,27.646,"Diego Alonso Saldana, Laurie Starck, Pascal Mougin, Bernard Rousseau, Nicolas Ferrando, and Benoit Creton. Prediction of density and viscosity of biofuel compounds using machine learning methods. Energy & fuels, 26(4):2416-2426, 2012."
1771,1-n-hexylnaphthalene,CCCCCCc1cccc2ccccc12,323.1,0.003095017,3.28,0.515873844,0.932445482,0.07,21.91711881,4.236524254,17.45842672,17.96533456,18.2083271,30.15826733,"Diego Alonso Saldana, Laurie Starck, Pascal Mougin, Bernard Rousseau, Nicolas Ferrando, and Benoit Creton. Prediction of density and viscosity of biofuel compounds using machine learning methods. Energy & fuels, 26(4):2416-2426, 2012."
1772,1-n-hexylnaphthalene,CCCCCCc1cccc2ccccc12,353.1,0.002832059,1.73,0.238046103,0.919350628,0.1,22.02205941,4.060338917,17.07677068,17.55315819,17.71003232,30.20272277,"Diego Alonso Saldana, Laurie Starck, Pascal Mougin, Bernard Rousseau, Nicolas Ferrando, and Benoit Creton. Prediction of density and viscosity of biofuel compounds using machine learning methods. Energy & fuels, 26(4):2416-2426, 2012."
1773,1-n-hexylnaphthalene,CCCCCCc1cccc2ccccc12,373.1,0.002680247,1.26,0.100370545,0.897328562,0.24,22.20815842,3.833623488,16.53003454,16.96910951,17.02684891,30.54358416,"Diego Alonso Saldana, Laurie Starck, Pascal Mougin, Bernard Rousseau, Nicolas Ferrando, and Benoit Creton. Prediction of density and viscosity of biofuel compounds using machine learning methods. Energy & fuels, 26(4):2416-2426, 2012."
1774,Hexyl benzene,CCCCCCc1ccccc1,298.15,0.003354016,1.52,0.181843588,0.846266898,0.09,21.98379208,2.942489491,16.67058208,16.92848102,13.72628249,30.15713861,"Dabir S Viswanath, Tushar K Ghosh, Dasika HL Prasad, Nidamarty VK Dutt, Kalipatnapu Y Rani, Dabir S Viswanath, Tushar K Ghosh, Dasika HL Prasad, Nidamarty VK Dutt, and Kalipatnapu Y Rani. Correlations and estimation of pure liquid viscosity.Viscosity of Liquids: Theory, Estimation, Experiment, and Data, pages 135-405, 2007."
1775,1-Chloropentane,CCCCCCl,293.15,0.003411223,0.58,-0.236572006,0.885985946,0.24,22.73759406,5.467999698,16.15804384,17.05831232,8.949969385,31.39186139,"A Dean John et al. Lange's handbook of chemistry. In Universitas Of Tennese Knoxville, Fifthenth Edition, Mc. Graw Hill Inc, New York. Conference, 1999."
1776,Dipentylamine,CCCCCNCCCCC,328.15,0.003047387,4.66,0.668385917,0.740612979,0.33,21.83371287,3.808000748,14.85381855,15.3351019,12.58989696,29.99957426,"A Dean John et al. Lange's handbook of chemistry. In Universitas Of Tennese Knoxville, Fifthenth Edition, Mc. Graw Hill Inc, New York. Conference, 1999."
1777,Dipentylamine,CCCCCNCCCCC,403.15,0.002480466,1.04,0.017033339,0.657904159,1.66,22.71155446,2.532480326,12.72415922,12.97497849,10.4215286,31.29750495,"A Dean John et al. Lange's handbook of chemistry. In Universitas Of Tennese Knoxville, Fifthenth Edition, Mc. Graw Hill Inc, New York. Conference, 1999."
1778,d-amyl alcohol,CCCCCO,284.78,0.003511483,6.9581,0.842490666,0.819227023,0.08,21.50355446,15.81926945,15.73421364,22.31218017,13.3688803,29.63888119,"WE Wasburn. International critical tables of numerical data, physics, chemistry and technology. 1st electronic edition. Knovel: Norwich, NY, 2003."
1779,1-Pentanol,CCCCCO,288.15,0.003470415,4.65,0.667452953,0.8097328,0.12,21.58180198,15.62278307,15.53925028,22.03534883,13.2063024,29.73836634,"A Dean John et al. Lange's handbook of chemistry. In Universitas Of Tennese Knoxville, Fifthenth Edition, Mc. Graw Hill Inc, New York. Conference, 1999."
1780,n-Pentanol,CCCCCO,293.15,0.003411223,4.4,0.643452677,0.808127317,0.1,21.59953465,15.53991354,15.50479677,21.95240619,13.14622454,29.79112871,"Dabir S Viswanath, Tushar K Ghosh, Dasika HL Prasad, Nidamarty VK Dutt, Kalipatnapu Y Rani, Dabir S Viswanath, Tushar K Ghosh, Dasika HL Prasad, Nidamarty VK Dutt, and Kalipatnapu Y Rani. Correlations and estimation of pure liquid viscosity.Viscosity of Liquids: Theory, Estimation, Experiment, and Data, pages 135-405, 2007."
1781,d-amyl alcohol,CCCCCO,307.9,0.003247808,3.0788,0.488381478,0.791703033,0.16,21.75362376,15.02252268,15.14697258,21.33364692,12.72343217,30.05556436,"WE Wasburn. International critical tables of numerical data, physics, chemistry and technology. 1st electronic edition. Knovel: Norwich, NY, 2003."
1782,d-amyl alcohol,CCCCCO,320.55,0.003119638,2.088,0.319730494,0.780005523,0.2,21.85670297,14.55233871,14.91270826,20.83686614,12.36433541,30.15680198,"WE Wasburn. International critical tables of numerical data, physics, chemistry and technology. 1st electronic edition. Knovel: Norwich, NY, 2003."
1783,d-amyl alcohol,CCCCCO,330.09,0.003029477,1.5956,0.202924028,0.766656872,0.37,21.97412871,14.18637547,14.61014753,20.36487034,12.05312416,30.38211881,"WE Wasburn. International critical tables of numerical data, physics, chemistry and technology. 1st electronic edition. Knovel: Norwich, NY, 2003."
1784,d-amyl alcohol,CCCCCO,340.67,0.002935392,1.2183,0.085754244,0.760872575,0.39,22.0389703,13.82992851,14.50950924,20.04537423,11.80331428,30.38513861,"WE Wasburn. International critical tables of numerical data, physics, chemistry and technology. 1st electronic edition. Knovel: Norwich, NY, 2003."
1785,d-amyl alcohol,CCCCCO,352.4,0.002837684,0.9254,-0.033670505,0.753443943,0.59,22.10167327,13.47329707,14.35481173,19.6877621,11.53904581,30.50549505,"WE Wasburn. International critical tables of numerical data, physics, chemistry and technology. 1st electronic edition. Knovel: Norwich, NY, 2003."
1786,d-amyl alcohol,CCCCCO,365.03,0.002739501,0.7075,-0.150273556,0.732354121,0.66,22.32341584,12.79682385,13.92954321,18.91611474,11.01932464,30.70631683,"WE Wasburn. International critical tables of numerical data, physics, chemistry and technology. 1st electronic edition. Knovel: Norwich, NY, 2003."
1787,d-amyl alcohol,CCCCCO,373.18,0.002679672,0.6033,-0.219466675,0.728304557,0.89,22.36348515,12.55002165,13.8562293,18.69560217,10.85285333,30.80035644,"WE Wasburn. International critical tables of numerical data, physics, chemistry and technology. 1st electronic edition. Knovel: Norwich, NY, 2003."
1788,d-amyl alcohol,CCCCCO,385.93,0.002591143,0.4819,-0.317043074,0.701216347,1.07,22.65394059,11.80726637,13.29052464,17.77854547,10.26382856,31.18337624,"WE Wasburn. International critical tables of numerical data, physics, chemistry and technology. 1st electronic edition. Knovel: Norwich, NY, 2003."
1789,d-amyl alcohol,CCCCCO,397.51,0.00251566,0.4008,-0.397072287,0.686391992,1.66,22.81685149,11.31480744,13.00025285,17.23573942,9.908621968,31.39090099,"WE Wasburn. International critical tables of numerical data, physics, chemistry and technology. 1st electronic edition. Knovel: Norwich, NY, 2003."
1790,Methyl pentyl ether,CCCCCOC,298.15,0.003354016,0.42,-0.37675071,0.747869521,0.37,22.10685149,4.081614446,15.33376505,15.8679405,8.814476505,30.44112871,"Valentin Goussard, Francois Duprat, Jean-Luc Ploix, G erard Dreyfus, Veronique Nardello-Rataj, and Jean-Marie Aubry. A new machine-learning tool for fast estimation of liquid viscosity. application to cosmetic oils. Journal of Chemical Information and Modeling, 60(4):2012-2023, 2020."