Index,Name,CANON_SMILES,Temperature (K),Inverse temperature (1/K),Viscosity (cP),log(Viscosity),MD_density,MD_FV,MD_Rg,MD_SP_E,MD_SP_V,MD_SP,MD_HV,MD_RMSD,Reference
2651,Octamethylcyclotetrasiloxane,C[Si]1(C)O[Si](C)(C)O[Si](C)(C)O[Si](C)(C)O1,293.15,0.003411223,2.2,0.342422681,0.98884916,0.12,23.17627723,0.571024312,13.79321328,13.8053135,14.24632111,29.20710891,"A Dean John et al. Lange's handbook of chemistry. In Universitas Of Tennese Knoxville, Fifthenth Edition, Mc. Graw Hill Inc, New York. Conference, 1999."
2652,Octamethylcyclotetrasiloxane,C[Si]1(C)O[Si](C)(C)O[Si](C)(C)O[Si](C)(C)O1,298.15,0.003354016,2.1,0.322219295,0.95819099,0.35,23.42447525,0.686315941,13.18642981,13.20451507,13.49286343,32.0140396,"Valentin Goussard, Francois Duprat, Jean-Luc Ploix, G erard Dreyfus, Veronique Nardello-Rataj, and Jean-Marie Aubry. A new machine-learning tool for fast estimation of liquid viscosity. application to cosmetic oils. Journal of Chemical Information and Modeling, 60(4):2012-2023, 2020."
2653,Decamethylcyclopentasiloxane,C[Si]1(C)O[Si](C)(C)O[Si](C)(C)O[Si](C)(C)O[Si](C)(C)O1,298.15,0.003354016,3.8,0.579783597,0.959599862,0.43,23.40170297,0.733817952,12.65132107,12.67289907,15.42382267,31.73020792,"Valentin Goussard, Francois Duprat, Jean-Luc Ploix, G erard Dreyfus, Veronique Nardello-Rataj, and Jean-Marie Aubry. A new machine-learning tool for fast estimation of liquid viscosity. application to cosmetic oils. Journal of Chemical Information and Modeling, 60(4):2012-2023, 2020."
2654,tetradecamethyl-cycloheptasiloxane,C[Si]1(C)O[Si](C)(C)O[Si](C)(C)O[Si](C)(C)O[Si](C)(C)O[Si](C)(C)O[Si](C)(C)O1,298.15,0.003354016,10.8,1.033423755,0.971714448,0.32,23.36286139,0.727849313,12.11608458,12.13818115,19.40363314,30.75665347,"Valentin Goussard, Francois Duprat, Jean-Luc Ploix, G erard Dreyfus, Veronique Nardello-Rataj, and Jean-Marie Aubry. A new machine-learning tool for fast estimation of liquid viscosity. application to cosmetic oils. Journal of Chemical Information and Modeling, 60(4):2012-2023, 2020."
2655,"2,6-di-tert-butyl-p-cresol",Cc1cc(C(C)(C)C)c(O)c(C(C)(C)C)c1,353.1,0.002832059,3.03,0.481442629,0.900326809,0.17,21.65438614,3.937882214,15.89422086,16.37510239,16.38732053,29.69234653,"Diego Alonso Saldana, Laurie Starck, Pascal Mougin, Bernard Rousseau, Nicolas Ferrando, and Benoit Creton. Prediction of density and viscosity of biofuel compounds using machine learning methods. Energy & fuels, 26(4):2416-2426, 2012."
2656,"2,6-di-tert-butyl-p-cresol",Cc1cc(C(C)(C)C)c(O)c(C(C)(C)C)c1,373.1,0.002680247,1.76,0.245512668,0.887826118,0.23,21.75584158,3.808339921,15.55925032,16.01886833,15.9633625,29.80883168,"Diego Alonso Saldana, Laurie Starck, Pascal Mougin, Bernard Rousseau, Nicolas Ferrando, and Benoit Creton. Prediction of density and viscosity of biofuel compounds using machine learning methods. Energy & fuels, 26(4):2416-2426, 2012."
2657,"2,6-di-tert-butyl-p-cresol",Cc1cc(C(C)(C)C)c(O)c(C(C)(C)C)c1,393.1,0.002543882,1.27,0.103803721,0.8675345,0.4,21.93147525,3.593146655,15.07639073,15.49904416,15.36457731,30.05844554,"Diego Alonso Saldana, Laurie Starck, Pascal Mougin, Bernard Rousseau, Nicolas Ferrando, and Benoit Creton. Prediction of density and viscosity of biofuel compounds using machine learning methods. Energy & fuels, 26(4):2416-2426, 2012."
2658,"2,6-di-tert-butyl-p-cresol",Cc1cc(C(C)(C)C)c(O)c(C(C)(C)C)c1,398.1,0.002511932,1.11,0.045322979,0.86945721,0.42,21.91370297,3.601976203,15.10593131,15.52991125,15.40023315,30.02961386,"Diego Alonso Saldana, Laurie Starck, Pascal Mougin, Bernard Rousseau, Nicolas Ferrando, and Benoit Creton. Prediction of density and viscosity of biofuel compounds using machine learning methods. Energy & fuels, 26(4):2416-2426, 2012."
2659,"1,3,5-Trimethylbenzene",Cc1cc(C)cc(C)c1,293.15,0.003411223,1.154,0.062205809,0.877552202,0.07,22.12725743,4.733377922,17.52604942,18.15415384,11.37133818,30.50039604,"A Dean John et al. Lange's handbook of chemistry. In Universitas Of Tennese Knoxville, Fifthenth Edition, Mc. Graw Hill Inc, New York. Conference, 1999."
2660,"2,4,6-trimethylpyridine",Cc1cc(C)nc(C)c1,298.15,0.003354016,0.805378441,-0.094,0.933799194,0.02,22.08965347,8.279064465,18.60283011,20.36208727,13.45241008,30.48880198,"Gregory W Kau man and Peter C Jurs. Prediction of surface tension, viscosity, and thermal conductivity for common organic solvents using quantitative structure- property relationships. Journal of chemical information and computer sciences, 41(2):408-418, 2001."
2661,"3,5-dinitrotoluene",Cc1cc([N+](=O)[O-])cc([N+](=O)[O-])c1,365.65,0.002734856,2.0339,0.308329596,1.287191197,0.02,23.14224752,10.73766399,20.86877,23.46932204,19.3543027,31.8289703,"Sunghwan Kim, Paul A Thiessen, Tiejun Cheng, Jian Zhang, Asta Gindulyte, and Evan E Bolton. Pug-view: programmatic access to chemical annotations integrated in pubchem. Journal of cheminformatics, 11(1):1-11, 2019."
2662,"2,5-dinitrotoluene",Cc1cc([N+](=O)[O-])ccc1[N+](=O)[O-],323.48,0.003091381,5.5393,0.743454887,1.338706708,0.01,22.84159406,11.24712786,21.74405307,24.48073181,20.13066247,29.65392079,"Sunghwan Kim, Paul A Thiessen, Tiejun Cheng, Jian Zhang, Asta Gindulyte, and Evan E Bolton. Pug-view: programmatic access to chemical annotations integrated in pubchem. Journal of cheminformatics, 11(1):1-11, 2019."
2663,"1,2,4-Trimethylbenzene",Cc1ccc(C)c(C)c1,288.15,0.003470415,0.894,-0.048662481,0.88318629,0.06,22.0760297,4.794046825,17.54088847,18.18435751,11.32827786,30.45689109,"A Dean John et al. Lange's handbook of chemistry. In Universitas Of Tennese Knoxville, Fifthenth Edition, Mc. Graw Hill Inc, New York. Conference, 1999."
2664,"1,2,4-Trimethylbenzene",Cc1ccc(C)c(C)c1,303.15,0.003298697,0.73,-0.13667714,0.873610655,0.1,22.14979208,4.660482251,17.27180002,17.88970497,11.12646944,30.51860396,"A Dean John et al. Lange's handbook of chemistry. In Universitas Of Tennese Knoxville, Fifthenth Edition, Mc. Graw Hill Inc, New York. Conference, 1999."
2665,p-xylene,Cc1ccc(C)cc1,281.43,0.003553281,0.752,-0.123782159,0.885502185,0.1,22.28970297,5.123587242,17.67905954,18.40671984,10.26802093,30.74680198,"WE Wasburn. International critical tables of numerical data, physics, chemistry and technology. 1st electronic edition. Knovel: Norwich, NY, 2003."
2666,p-xylene,Cc1ccc(C)cc1,293.68,0.003405067,0.639,-0.194499142,0.865054472,0.07,22.46263366,4.89018811,17.19093625,17.87314923,9.954045409,31.02418812,"WE Wasburn. International critical tables of numerical data, physics, chemistry and technology. 1st electronic edition. Knovel: Norwich, NY, 2003."
2667,p-xylene,Cc1ccc(C)cc1,304.38,0.003285367,0.561,-0.251037139,0.865185591,0.17,22.45761386,4.854437765,17.15561734,17.82945956,9.928134966,31.06135644,"WE Wasburn. International critical tables of numerical data, physics, chemistry and technology. 1st electronic edition. Knovel: Norwich, NY, 2003."
2668,p-xylene,Cc1ccc(C)cc1,315.0,0.003174603,0.498,-0.302770657,0.855744864,0.14,22.54965347,4.724185381,16.91430508,17.56183001,9.771240693,31.14291089,"WE Wasburn. International critical tables of numerical data, physics, chemistry and technology. 1st electronic edition. Knovel: Norwich, NY, 2003."
2669,p-xylene,Cc1ccc(C)cc1,326.74,0.003060537,0.441,-0.355561411,0.833661436,0.22,22.74027723,4.508926826,16.38772306,16.99690105,9.442588615,31.41440594,"WE Wasburn. International critical tables of numerical data, physics, chemistry and technology. 1st electronic edition. Knovel: Norwich, NY, 2003."
2670,p-xylene,Cc1ccc(C)cc1,338.02,0.002958405,0.396,-0.402304814,0.832061227,0.28,22.74926733,4.448528937,16.32086744,16.9164741,9.398726895,31.41242574,"WE Wasburn. International critical tables of numerical data, physics, chemistry and technology. 1st electronic edition. Knovel: Norwich, NY, 2003."
2671,p-xylene,Cc1ccc(C)cc1,350.42,0.002853718,0.353,-0.452225295,0.815218673,0.36,22.91383168,4.272592179,15.92112286,16.4846987,9.154771877,31.62164356,"WE Wasburn. International critical tables of numerical data, physics, chemistry and technology. 1st electronic edition. Knovel: Norwich, NY, 2003."
2672,p-xylene,Cc1ccc(C)cc1,362.02,0.002762278,0.32,-0.494850022,0.809288707,0.49,22.9699802,4.172837664,15.75656461,16.30002528,9.05000522,31.72308911,"WE Wasburn. International critical tables of numerical data, physics, chemistry and technology. 1st electronic edition. Knovel: Norwich, NY, 2003."
2673,p-xylene,Cc1ccc(C)cc1,373.99,0.002673868,0.29,-0.537602002,0.789620924,0.48,23.15634653,3.983651435,15.30472974,15.81498135,8.780707758,31.89988119,"WE Wasburn. International critical tables of numerical data, physics, chemistry and technology. 1st electronic edition. Knovel: Norwich, NY, 2003."
2674,p-xylene,Cc1ccc(C)cc1,384.98,0.002597538,0.267,-0.573488739,0.784834918,0.62,23.20260396,3.926988138,15.153737,15.65462922,8.688391026,32.0309604,"WE Wasburn. International critical tables of numerical data, physics, chemistry and technology. 1st electronic edition. Knovel: Norwich, NY, 2003."
2675,p-xylene,Cc1ccc(C)cc1,396.41,0.002522641,0.245,-0.610833916,0.767017489,0.89,23.3819703,3.779716793,14.75073513,15.22758621,8.458881768,32.17011881,"WE Wasburn. International critical tables of numerical data, physics, chemistry and technology. 1st electronic edition. Knovel: Norwich, NY, 2003."
2676,4-chlorotoluene,Cc1ccc(Cl)cc1,293.15,0.003411223,0.892,-0.049635146,1.087463646,0.06,23.45455446,6.013839874,18.34483001,19.30561432,10.95172231,32.39381188,"Sunghwan Kim, Paul A Thiessen, Tiejun Cheng, Jian Zhang, Asta Gindulyte, and Evan E Bolton. Pug-view: programmatic access to chemical annotations integrated in pubchem. Journal of cheminformatics, 11(1):1-11, 2019."
2677,p-Fluorotoluene,Cc1ccc(F)cc1,293.15,0.003411223,0.622,-0.206209615,1.011615487,0.09,22.94026733,6.730231283,17.21759264,18.48638974,9.474703051,31.69927723,"A Dean John et al. Lange's handbook of chemistry. In Universitas Of Tennese Knoxville, Fifthenth Edition, Mc. Graw Hill Inc, New York. Conference, 1999."
2678,p-Fluorotoluene,Cc1ccc(F)cc1,303.15,0.003298697,0.522,-0.282329497,0.994289403,0.12,23.07011881,6.575213443,16.86309014,18.09978932,9.275080211,31.83191089,"A Dean John et al. Lange's handbook of chemistry. In Universitas Of Tennese Knoxville, Fifthenth Edition, Mc. Graw Hill Inc, New York. Conference, 1999."
2679,dimethyl-p-toluidine,Cc1ccc(N(C)C)cc1,328.15,0.003047387,0.86,-0.065501549,0.910775984,0.1,22.05671287,6.214070278,17.05335695,18.15049188,12.34120767,30.37649505,"WE Wasburn. International critical tables of numerical data, physics, chemistry and technology. 1st electronic edition. Knovel: Norwich, NY, 2003."
2680,p-toluidine,Cc1ccc(N)cc1,313.05,0.003194378,2.08,0.318063335,0.982537603,0.05,22.0100396,10.94926768,18.2521053,21.28470907,12.43099719,30.42865347,"WE Wasburn. International critical tables of numerical data, physics, chemistry and technology. 1st electronic edition. Knovel: Norwich, NY, 2003."
2681,p-Toluidine,Cc1ccc(N)cc1,318.15,0.003143171,1.945,0.288919606,0.979201774,0.04,22.03345545,10.87129369,18.16331841,21.16854425,12.35237611,30.48641584,"A Dean John et al. Lange's handbook of chemistry. In Universitas Of Tennese Knoxville, Fifthenth Edition, Mc. Graw Hill Inc, New York. Conference, 1999."
2682,p-toluidine,Cc1ccc(N)cc1,333.05,0.003002552,1.39,0.1430148,0.973242095,0.03,22.08038614,10.54565495,17.99966737,20.86175187,12.11444558,30.52672277,"WE Wasburn. International critical tables of numerical data, physics, chemistry and technology. 1st electronic edition. Knovel: Norwich, NY, 2003."
2683,p-toluidine,Cc1ccc(N)cc1,352.95,0.002833263,1.01,0.004321374,0.946484714,0.11,22.28038614,9.886817147,17.43718429,20.04549824,11.5742739,30.78536634,"WE Wasburn. International critical tables of numerical data, physics, chemistry and technology. 1st electronic edition. Knovel: Norwich, NY, 2003."
2684,p-toluidine,Cc1ccc(N)cc1,373.05,0.002680606,0.776,-0.110138279,0.930832877,0.15,22.40830693,9.474921794,17.06937233,19.52317093,11.22838034,30.94717822,"WE Wasburn. International critical tables of numerical data, physics, chemistry and technology. 1st electronic edition. Knovel: Norwich, NY, 2003."
2685,p-toluidine,Cc1ccc(N)cc1,398.15,0.002511616,0.608,-0.216096421,0.908491392,0.23,22.59127723,8.888089295,16.57549186,18.8086086,10.76406778,31.18890099,"WE Wasburn. International critical tables of numerical data, physics, chemistry and technology. 1st electronic edition. Knovel: Norwich, NY, 2003."
2686,p-toluidine,Cc1ccc(N)cc1,403.15,0.002480466,0.52,-0.283996656,0.894819316,0.48,22.70718812,8.676255761,16.30334279,18.46875563,10.56377451,31.40220792,"WE Wasburn. International critical tables of numerical data, physics, chemistry and technology. 1st electronic edition. Knovel: Norwich, NY, 2003."
2687,p-cresol,Cc1ccc(O)cc1,293.1,0.003411805,18.95,1.277609214,1.05170381,0.02,22.02547525,18.02172583,18.21389871,25.62306173,16.71723419,26.82214851,"Diego Alonso Saldana, Laurie Starck, Pascal Mougin, Bernard Rousseau, Nicolas Ferrando, and Benoit Creton. Prediction of density and viscosity of biofuel compounds using machine learning methods. Energy & fuels, 26(4):2416-2426, 2012."
2688,p-cresol,Cc1ccc(O)cc1,298.1,0.003354579,14.08,1.148602655,1.044456919,0.02,22.06179208,17.86060773,18.065643,25.40441368,16.56305145,26.95140594,"Diego Alonso Saldana, Laurie Starck, Pascal Mougin, Bernard Rousseau, Nicolas Ferrando, and Benoit Creton. Prediction of density and viscosity of biofuel compounds using machine learning methods. Energy & fuels, 26(4):2416-2426, 2012."
2689,4-methylphenol,Cc1ccc(O)cc1,298.15,0.003354016,9.397233106,0.973,1.04574686,0.02,22.0680297,17.91661072,18.09040345,25.46134632,16.61499032,26.6419802,"Gregory W Kau man and Peter C Jurs. Prediction of surface tension, viscosity, and thermal conductivity for common organic solvents using quantitative structure- property relationships. Journal of chemical information and computer sciences, 41(2):408-418, 2001."
2690,p-cresol,Cc1ccc(O)cc1,313.1,0.003193868,6.5,0.812913357,1.037993819,0.03,22.11535644,17.4727083,17.96749931,25.06274385,16.26296323,28.91134653,"Diego Alonso Saldana, Laurie Starck, Pascal Mougin, Bernard Rousseau, Nicolas Ferrando, and Benoit Creton. Prediction of density and viscosity of biofuel compounds using machine learning methods. Energy & fuels, 26(4):2416-2426, 2012."
2691,p-cresol,Cc1ccc(O)cc1,318.1,0.003143666,5.61,0.748962861,1.032059583,0.04,22.15738614,17.25429662,17.86559514,24.83761724,16.08151161,29.59581188,"Diego Alonso Saldana, Laurie Starck, Pascal Mougin, Bernard Rousseau, Nicolas Ferrando, and Benoit Creton. Prediction of density and viscosity of biofuel compounds using machine learning methods. Energy & fuels, 26(4):2416-2426, 2012."
2692,p-Cresol,Cc1ccc(O)cc1,318.15,0.003143171,5.607,0.748730556,1.029428397,0.04,22.17866337,17.24177964,17.82137368,24.79716606,16.0706933,29.69029703,"A Dean John et al. Lange's handbook of chemistry. In Universitas Of Tennese Knoxville, Fifthenth Edition, Mc. Graw Hill Inc, New York. Conference, 1999."
2693,p-cresol,Cc1ccc(O)cc1,323.1,0.003095017,4.48,0.651278014,1.026759555,0.05,22.19526733,17.09690409,17.77815678,24.66542216,15.95660187,30.11050495,"Diego Alonso Saldana, Laurie Starck, Pascal Mougin, Bernard Rousseau, Nicolas Ferrando, and Benoit Creton. Prediction of density and viscosity of biofuel compounds using machine learning methods. Energy & fuels, 26(4):2416-2426, 2012."
2694,P-cresol,Cc1ccc(O)cc1,323.15,0.003094538,4.48,0.651278014,1.025062929,0.04,22.20491089,17.11656532,17.72893065,24.64367052,15.9550189,30.39483168,"Sunghwan Kim, Paul A Thiessen, Tiejun Cheng, Jian Zhang, Asta Gindulyte, and Evan E Bolton. Pug-view: programmatic access to chemical annotations integrated in pubchem. Journal of cheminformatics, 11(1):1-11, 2019."
2695,p-cresol,Cc1ccc(O)cc1,333.15,0.003001651,3.28,0.515873844,1.014901053,0.07,22.27571287,16.75287275,17.54218771,24.25707604,15.64680005,30.70529703,"WE Wasburn. International critical tables of numerical data, physics, chemistry and technology. 1st electronic edition. Knovel: Norwich, NY, 2003."
2696,p-cresol,Cc1ccc(O)cc1,348.1,0.002872738,2.11,0.324282455,1.008934069,0.05,22.32132673,16.35496707,17.4646541,23.92738835,15.35820139,30.74719802,"Diego Alonso Saldana, Laurie Starck, Pascal Mougin, Bernard Rousseau, Nicolas Ferrando, and Benoit Creton. Prediction of density and viscosity of biofuel compounds using machine learning methods. Energy & fuels, 26(4):2416-2426, 2012."
2697,p-cresol,Cc1ccc(O)cc1,353.1,0.002832059,2.0,0.301029996,1.002906005,0.1,22.36282178,16.16959167,17.34666561,23.71467945,15.19512325,30.99190099,"Diego Alonso Saldana, Laurie Starck, Pascal Mougin, Bernard Rousseau, Nicolas Ferrando, and Benoit Creton. Prediction of density and viscosity of biofuel compounds using machine learning methods. Energy & fuels, 26(4):2416-2426, 2012."
2698,p-cresol,Cc1ccc(O)cc1,353.15,0.002831658,1.93,0.285557309,1.005836744,0.07,22.34382178,16.18031584,17.40685147,23.76590195,15.21544693,30.88430693,"WE Wasburn. International critical tables of numerical data, physics, chemistry and technology. 1st electronic edition. Knovel: Norwich, NY, 2003."
2699,p-cresol,Cc1ccc(O)cc1,383.15,0.002609944,1.08,0.033423755,0.972862184,0.15,22.5990396,15.12687133,16.83023861,22.62962038,14.36645608,31.26147525,"WE Wasburn. International critical tables of numerical data, physics, chemistry and technology. 1st electronic edition. Knovel: Norwich, NY, 2003."
2700,p-cresol,Cc1ccc(O)cc1,403.1,0.002480774,0.8,-0.096910013,0.955031856,0.15,22.73646535,14.47353422,16.51005685,21.95647228,13.84793442,31.39627723,"Diego Alonso Saldana, Laurie Starck, Pascal Mougin, Bernard Rousseau, Nicolas Ferrando, and Benoit Creton. Prediction of density and viscosity of biofuel compounds using machine learning methods. Energy & fuels, 26(4):2416-2426, 2012."
2701,p-cresol,Cc1ccc(O)cc1,404.1,0.002474635,0.73,-0.13667714,0.950036354,0.25,22.78086139,14.39496227,16.40976546,21.82920399,13.76691541,31.51083168,"Diego Alonso Saldana, Laurie Starck, Pascal Mougin, Bernard Rousseau, Nicolas Ferrando, and Benoit Creton. Prediction of density and viscosity of biofuel compounds using machine learning methods. Energy & fuels, 26(4):2416-2426, 2012."
2702,p-Nitrotoluene,Cc1ccc([N+](=O)[O-])cc1,293.15,0.003411223,2.33,0.367355921,1.150925041,0.01,22.66682178,10.20285997,20.25123572,22.67630662,15.22664689,31.26139604,"Dabir S Viswanath, Tushar K Ghosh, Dasika HL Prasad, Nidamarty VK Dutt, Kalipatnapu Y Rani, Dabir S Viswanath, Tushar K Ghosh, Dasika HL Prasad, Nidamarty VK Dutt, and Kalipatnapu Y Rani. Correlations and estimation of pure liquid viscosity.Viscosity of Liquids: Theory, Estimation, Experiment, and Data, pages 135-405, 2007."
2703,"2,4-dinitrotoluene",Cc1ccc([N+](=O)[O-])cc1[N+](=O)[O-],342.65,0.00291843,3.4553,0.53848576,1.317886643,0.01,22.9649505,11.32207862,21.33965846,24.15731062,19.95706338,31.22913861,"Sunghwan Kim, Paul A Thiessen, Tiejun Cheng, Jian Zhang, Asta Gindulyte, and Evan E Bolton. Pug-view: programmatic access to chemical annotations integrated in pubchem. Journal of cheminformatics, 11(1):1-11, 2019."
2704,m-xylene,Cc1cccc(C)c1,273.39,0.003657778,0.799,-0.097453221,0.895020947,0.02,22.21325743,5.231569578,17.94102625,18.68841183,10.4450453,30.62981188,"WE Wasburn. International critical tables of numerical data, physics, chemistry and technology. 1st electronic edition. Knovel: Norwich, NY, 2003."
2705,m-xylene,Cc1cccc(C)c1,284.67,0.003512839,0.684,-0.164943898,0.880186185,0.05,22.33811881,5.048512388,17.5748888,18.2858051,10.20519116,30.91813861,"WE Wasburn. International critical tables of numerical data, physics, chemistry and technology. 1st electronic edition. Knovel: Norwich, NY, 2003."