Index,Name,CANON_SMILES,Temperature (K),Inverse temperature (1/K),Viscosity (cP),log(Viscosity),MD_density,MD_FV,MD_Rg,MD_SP_E,MD_SP_V,MD_SP,MD_HV,MD_RMSD,Reference
273,Isobutyl acrylate,C=CC(=O)OCC(C)C,294.2611111,0.003398342,0.822,-0.085128182,0.936096371,0.04,22.12476238,7.579018891,18.17117651,19.68853503,13.27018315,30.4929604,"Sunghwan Kim, Paul A Thiessen, Tiejun Cheng, Jian Zhang, Asta Gindulyte, and Evan E Bolton. Pug-view: programmatic access to chemical annotations integrated in pubchem. Journal of cheminformatics, 11(1):1-11, 2019."
274,n-butyl acrylate,C=CC(=O)OCCCC,278.3,0.003593245,1.18,0.071882007,0.941320166,0.03,22.08086139,7.754061024,18.56308025,20.11758566,13.72384676,30.44114851,"Diego Alonso Saldana, Laurie Starck, Pascal Mougin, Bernard Rousseau, Nicolas Ferrando, and Benoit Creton. Prediction of density and viscosity of biofuel compounds using machine learning methods. Energy & fuels, 26(4):2416-2426, 2012."
275,n-butyl acrylate,C=CC(=O)OCCCC,286.0,0.003496503,1.03,0.012837225,0.935908275,0.07,22.12511881,7.656797195,18.4118371,19.94059567,13.58327107,30.58110891,"Diego Alonso Saldana, Laurie Starck, Pascal Mougin, Bernard Rousseau, Nicolas Ferrando, and Benoit Creton. Prediction of density and viscosity of biofuel compounds using machine learning methods. Energy & fuels, 26(4):2416-2426, 2012."
276,n-butyl acrylate,C=CC(=O)OCCCC,298.3,0.00335233,0.86,-0.065501549,0.922245585,0.12,22.23836634,7.484355527,18.06504226,19.55418367,13.2935719,30.68819802,"Diego Alonso Saldana, Laurie Starck, Pascal Mougin, Bernard Rousseau, Nicolas Ferrando, and Benoit Creton. Prediction of density and viscosity of biofuel compounds using machine learning methods. Energy & fuels, 26(4):2416-2426, 2012."
277,Linalool,C=CC(C)(O)CCC=C(C)C,298.15,0.003354016,4.465,0.649821463,0.865261002,0.09,21.6919505,9.13758437,16.46473429,18.83100891,15.70188522,29.71369307,"Sunghwan Kim, Paul A Thiessen, Tiejun Cheng, Jian Zhang, Asta Gindulyte, and Evan E Bolton. Pug-view: programmatic access to chemical annotations integrated in pubchem. Journal of cheminformatics, 11(1):1-11, 2019."
278,Methyl vinyl ketone,C=CC(C)=O,294.2611111,0.003398342,0.807,-0.093126465,0.881764747,0.04,22.89788119,12.42974966,17.98216869,21.86002328,9.663358537,31.73129703,"Sunghwan Kim, Paul A Thiessen, Tiejun Cheng, Jian Zhang, Asta Gindulyte, and Evan E Bolton. Pug-view: programmatic access to chemical annotations integrated in pubchem. Journal of cheminformatics, 11(1):1-11, 2019."
279,Acrylamide,C=CC(N)=O,298.15,0.003354016,2.71,0.432969291,1.113657094,0.01,21.96451485,24.64089556,20.7066382,32.18613494,16.39522465,30.03746535,"Sunghwan Kim, Paul A Thiessen, Tiejun Cheng, Jian Zhang, Asta Gindulyte, and Evan E Bolton. Pug-view: programmatic access to chemical annotations integrated in pubchem. Journal of cheminformatics, 11(1):1-11, 2019."
280,"1,3-butadiene",C=CC=C,293.1,0.003411805,0.47,-0.327902142,0.632984561,0.83,24.2070297,2.930844783,14.10834071,14.40982386,4.823421201,33.59424752,"Diego Alonso Saldana, Laurie Starck, Pascal Mougin, Bernard Rousseau, Nicolas Ferrando, and Benoit Creton. Prediction of density and viscosity of biofuel compounds using machine learning methods. Energy & fuels, 26(4):2416-2426, 2012."
281,"1,3-butadiene",C=CC=C,303.1,0.003299241,0.42,-0.37675071,0.619193864,1.08,24.39983168,2.79635509,13.74408396,14.02590236,4.709803654,33.78345545,"Diego Alonso Saldana, Laurie Starck, Pascal Mougin, Bernard Rousseau, Nicolas Ferrando, and Benoit Creton. Prediction of density and viscosity of biofuel compounds using machine learning methods. Energy & fuels, 26(4):2416-2426, 2012."
282,"1,3-butadiene",C=CC=C,313.1,0.003193868,0.38,-0.420216403,0.598461862,1.94,24.66289109,2.657098318,13.22558205,13.49011611,4.553484366,34.34730693,"Diego Alonso Saldana, Laurie Starck, Pascal Mougin, Bernard Rousseau, Nicolas Ferrando, and Benoit Creton. Prediction of density and viscosity of biofuel compounds using machine learning methods. Energy & fuels, 26(4):2416-2426, 2012."
283,"1,3-butadiene",C=CC=C,323.1,0.003095017,0.35,-0.455931956,0.591531953,2.03,24.76689109,2.582899791,13.04280435,13.29636321,4.505994295,34.27485149,"Diego Alonso Saldana, Laurie Starck, Pascal Mougin, Bernard Rousseau, Nicolas Ferrando, and Benoit Creton. Prediction of density and viscosity of biofuel compounds using machine learning methods. Energy & fuels, 26(4):2416-2426, 2012."
284,"1,3-butadiene",C=CC=C,333.1,0.003002101,0.31,-0.508638306,0.572868852,2.12,25.01373267,2.444777993,12.5723271,12.80804028,4.364077452,34.65786139,"Diego Alonso Saldana, Laurie Starck, Pascal Mougin, Bernard Rousseau, Nicolas Ferrando, and Benoit Creton. Prediction of density and viscosity of biofuel compounds using machine learning methods. Energy & fuels, 26(4):2416-2426, 2012."
285,Acrolein,C=CC=O,293.15,0.003411223,0.35,-0.455931956,0.864468267,0.05,23.78636634,13.81959358,18.35448514,22.97543989,8.764760159,33.02584158,"Sunghwan Kim, Paul A Thiessen, Tiejun Cheng, Jian Zhang, Asta Gindulyte, and Evan E Bolton. Pug-view: programmatic access to chemical annotations integrated in pubchem. Journal of cheminformatics, 11(1):1-11, 2019."
286,3-bromopropylene,C=CCBr,273.45,0.003656976,0.6168,-0.209855635,1.532219003,0.05,24.42668317,8.263397549,18.323434,20.1006144,8.168097407,33.8879802,"WE Wasburn. International critical tables of numerical data, physics, chemistry and technology. 1st electronic edition. Knovel: Norwich, NY, 2003."
287,3-bromopropylene,C=CCBr,279.79,0.003574109,0.573,-0.241845378,1.510181319,0.06,24.54827723,8.130362223,18.02084037,19.77008677,8.039634959,34.06836634,"WE Wasburn. International critical tables of numerical data, physics, chemistry and technology. 1st electronic edition. Knovel: Norwich, NY, 2003."
288,3-bromopropylene,C=CCBr,285.57,0.003501768,0.5372,-0.269863996,1.50420868,0.08,24.57173267,8.069874205,17.92455793,19.65746794,7.995477977,34.07473267,"WE Wasburn. International critical tables of numerical data, physics, chemistry and technology. 1st electronic edition. Knovel: Norwich, NY, 2003."
289,3-bromopropylene,C=CCBr,291.49,0.003430649,0.5046,-0.297052754,1.492328449,0.1,24.64209901,7.982898716,17.7451053,19.45813608,7.915311459,34.20887129,"WE Wasburn. International critical tables of numerical data, physics, chemistry and technology. 1st electronic edition. Knovel: Norwich, NY, 2003."
290,3-bromopropylene,C=CCBr,297.88,0.003357057,0.4727,-0.325414398,1.463187398,0.15,24.80343564,7.799104137,17.35138736,19.02366003,7.743709721,34.37794059,"WE Wasburn. International critical tables of numerical data, physics, chemistry and technology. 1st electronic edition. Knovel: Norwich, NY, 2003."
291,3-bromopropylene,C=CCBr,303.99,0.003289582,0.4449,-0.351737594,1.466805269,0.12,24.77425743,7.799804916,17.36952839,19.0404954,7.750847997,34.34840594,"WE Wasburn. International critical tables of numerical data, physics, chemistry and technology. 1st electronic edition. Knovel: Norwich, NY, 2003."
292,3-bromopropylene,C=CCBr,310.37,0.003221961,0.4198,-0.376957566,1.446294623,0.15,24.90005941,7.668188765,17.08932856,18.73097615,7.631146489,34.53311881,"WE Wasburn. International critical tables of numerical data, physics, chemistry and technology. 1st electronic edition. Knovel: Norwich, NY, 2003."
293,3-bromopropylene,C=CCBr,315.99,0.003164657,0.3988,-0.39924485,1.433269097,0.27,24.97637624,7.586097078,16.90260469,18.52702902,7.552760732,34.67366337,"WE Wasburn. International critical tables of numerical data, physics, chemistry and technology. 1st electronic edition. Knovel: Norwich, NY, 2003."
294,3-bromopropylene,C=CCBr,321.01,0.003115168,0.3805,-0.419645339,1.419164994,0.23,25.06441584,7.488224401,16.71313983,18.31409063,7.471726943,34.80959406,"WE Wasburn. International critical tables of numerical data, physics, chemistry and technology. 1st electronic edition. Knovel: Norwich, NY, 2003."
295,3-bromopropylene,C=CCBr,327.7,0.003051572,0.3587,-0.445268623,1.40127253,0.37,25.16114851,7.378298726,16.45821362,18.03651692,7.364079296,34.8670099,"WE Wasburn. International critical tables of numerical data, physics, chemistry and technology. 1st electronic edition. Knovel: Norwich, NY, 2003."
296,3-bromopropylene,C=CCBr,334.3,0.002991325,0.3402,-0.468265691,1.412999933,0.21,25.1000396,7.402726244,16.58321965,18.16060959,7.413393387,34.8159901,"WE Wasburn. International critical tables of numerical data, physics, chemistry and technology. 1st electronic edition. Knovel: Norwich, NY, 2003."
297,3-bromopropylene,C=CCBr,341.82,0.002925516,0.3193,-0.495801082,1.389915975,0.34,25.22066337,7.265444568,16.26609687,17.81504921,7.281813296,35.02262376,"WE Wasburn. International critical tables of numerical data, physics, chemistry and technology. 1st electronic edition. Knovel: Norwich, NY, 2003."
298,3-Butenoic acid,C=CCC(=O)O,298.15,0.003354016,1.4,0.146128036,1.029671556,0.04,22.62139604,18.99385953,18.61220116,26.59311544,14.72443749,31.27233663,"Valentin Goussard, Francois Duprat, Jean-Luc Ploix, G erard Dreyfus, Veronique Nardello-Rataj, and Jean-Marie Aubry. A new machine-learning tool for fast estimation of liquid viscosity. application to cosmetic oils. Journal of Chemical Information and Modeling, 60(4):2012-2023, 2020."
299,"1,5-Hexadiene",C=CCCC=C,309.15,0.003234676,0.244,-0.612610174,0.674291121,0.72,23.29233663,1.836089956,14.36761094,14.48472426,6.723292857,32.18561386,"A Dean John et al. Lange's handbook of chemistry. In Universitas Of Tennese Knoxville, Fifthenth Edition, Mc. Graw Hill Inc, New York. Conference, 1999."
300,1-Octene,C=CCCCCCC,293.15,0.003411223,0.47,-0.327902142,0.708604885,0.3,22.23350495,1.040204457,15.08333665,15.11935404,9.234705863,30.56811881,"A Dean John et al. Lange's handbook of chemistry. In Universitas Of Tennese Knoxville, Fifthenth Edition, Mc. Graw Hill Inc, New York. Conference, 1999."
301,1-Nonene,C=CCCCCCCC,293.15,0.003411223,0.62,-0.207608311,0.730451752,0.21,22.00745545,1.016623986,15.47547005,15.50903765,10.51810596,30.21027723,"A Dean John et al. Lange's handbook of chemistry. In Universitas Of Tennese Knoxville, Fifthenth Edition, Mc. Graw Hill Inc, New York. Conference, 1999."
302,1-Decene,C=CCCCCCCCC,293.15,0.003411223,0.805,-0.09420412,0.739135753,0.17,21.90319802,0.984464487,15.56267627,15.59399542,11.61221531,30.16933663,"A Dean John et al. Lange's handbook of chemistry. In Universitas Of Tennese Knoxville, Fifthenth Edition, Mc. Graw Hill Inc, New York. Conference, 1999."
303,1-Decene,C=CCCCCCCCC,298.15,0.003354016,0.75,-0.124938737,0.738252744,0.22,21.91314851,0.979454258,15.51669172,15.54773,11.56990652,30.19467327,"Dabir S Viswanath, Tushar K Ghosh, Dasika HL Prasad, Nidamarty VK Dutt, Kalipatnapu Y Rani, Dabir S Viswanath, Tushar K Ghosh, Dasika HL Prasad, Nidamarty VK Dutt, and Kalipatnapu Y Rani. Correlations and estimation of pure liquid viscosity.Viscosity of Liquids: Theory, Estimation, Experiment, and Data, pages 135-405, 2007."
304,1-Undecene,C=CCCCCCCCCC,298.15,0.003354016,0.96,-0.017728767,0.748135661,0.19,21.82707921,0.952773651,15.65365679,15.68275531,12.71603688,30.12444554,"Dabir S Viswanath, Tushar K Ghosh, Dasika HL Prasad, Nidamarty VK Dutt, Kalipatnapu Y Rani, Dabir S Viswanath, Tushar K Ghosh, Dasika HL Prasad, Nidamarty VK Dutt, and Kalipatnapu Y Rani. Correlations and estimation of pure liquid viscosity.Viscosity of Liquids: Theory, Estimation, Experiment, and Data, pages 135-405, 2007."
305,1-Dodecene,C=CCCCCCCCCCC,298.15,0.003354016,1.2,0.079181246,0.751826646,0.13,21.79482178,0.914120901,15.66104543,15.68783692,13.76175854,30.1420396,"Dabir S Viswanath, Tushar K Ghosh, Dasika HL Prasad, Nidamarty VK Dutt, Kalipatnapu Y Rani, Dabir S Viswanath, Tushar K Ghosh, Dasika HL Prasad, Nidamarty VK Dutt, and Kalipatnapu Y Rani. Correlations and estimation of pure liquid viscosity.Viscosity of Liquids: Theory, Estimation, Experiment, and Data, pages 135-405, 2007."
306,1-Tetra decene,C=CCCCCCCCCCCCC,298.15,0.003354016,1.83,0.26245109,0.762700217,0.2,21.6890396,0.887107808,15.78669714,15.8117216,15.97771176,29.82080198,"Dabir S Viswanath, Tushar K Ghosh, Dasika HL Prasad, Nidamarty VK Dutt, Kalipatnapu Y Rani, Dabir S Viswanath, Tushar K Ghosh, Dasika HL Prasad, Nidamarty VK Dutt, and Kalipatnapu Y Rani. Correlations and estimation of pure liquid viscosity.Viscosity of Liquids: Theory, Estimation, Experiment, and Data, pages 135-405, 2007."
307,1-Pentadodecene,C=CCCCCCCCCCCCCC,298.15,0.003354016,2.24,0.350248018,0.7774387,0.13,21.5430396,0.900822795,16.11162222,16.13691449,17.43619958,29.76431683,"Dabir S Viswanath, Tushar K Ghosh, Dasika HL Prasad, Nidamarty VK Dutt, Kalipatnapu Y Rani, Dabir S Viswanath, Tushar K Ghosh, Dasika HL Prasad, Nidamarty VK Dutt, and Kalipatnapu Y Rani. Correlations and estimation of pure liquid viscosity.Viscosity of Liquids: Theory, Estimation, Experiment, and Data, pages 135-405, 2007."
308,1-hexadecene,C=CCCCCCCCCCCCCCC,273.1,0.003661662,2.56,0.408239965,0.806413672,0.15,21.28363366,0.964241452,17.42546594,17.45224525,20.80360702,29.19610891,"Diego Alonso Saldana, Laurie Starck, Pascal Mougin, Bernard Rousseau, Nicolas Ferrando, and Benoit Creton. Prediction of density and viscosity of biofuel compounds using machine learning methods. Energy & fuels, 26(4):2416-2426, 2012."
309,1-hexadecene,C=CCCCCCCCCCCCCCC,293.1,0.003411805,1.67,0.222716471,0.7810236,0.15,21.51856436,0.88476116,16.17286813,16.19717371,18.60044863,29.90785149,"Diego Alonso Saldana, Laurie Starck, Pascal Mougin, Bernard Rousseau, Nicolas Ferrando, and Benoit Creton. Prediction of density and viscosity of biofuel compounds using machine learning methods. Energy & fuels, 26(4):2416-2426, 2012."
310,1-hexadecene,C=CCCCCCCCCCCCCCC,333.1,0.003002101,0.88,-0.055517328,0.742940648,0.32,21.88211881,0.79092829,15.05903673,15.0799702,17.08069376,30.31706931,"Diego Alonso Saldana, Laurie Starck, Pascal Mougin, Bernard Rousseau, Nicolas Ferrando, and Benoit Creton. Prediction of density and viscosity of biofuel compounds using machine learning methods. Energy & fuels, 26(4):2416-2426, 2012."
311,1-Hepta decene,C=CCCCCCCCCCCCCCCC,298.15,0.003354016,3.24,0.51054501,0.786147499,0.11,21.46349505,0.869629382,16.24486674,16.26823654,19.77908476,29.75310891,"Dabir S Viswanath, Tushar K Ghosh, Dasika HL Prasad, Nidamarty VK Dutt, Kalipatnapu Y Rani, Dabir S Viswanath, Tushar K Ghosh, Dasika HL Prasad, Nidamarty VK Dutt, and Kalipatnapu Y Rani. Correlations and estimation of pure liquid viscosity.Viscosity of Liquids: Theory, Estimation, Experiment, and Data, pages 135-405, 2007."
312,1-Octa decene,C=CCCCCCCCCCCCCCCCC,298.15,0.003354016,3.85,0.58546073,0.785067837,0.1,21.49841584,0.84322483,16.16659382,16.18868446,20.73719766,29.91544554,"Dabir S Viswanath, Tushar K Ghosh, Dasika HL Prasad, Nidamarty VK Dutt, Kalipatnapu Y Rani, Dabir S Viswanath, Tushar K Ghosh, Dasika HL Prasad, Nidamarty VK Dutt, and Kalipatnapu Y Rani. Correlations and estimation of pure liquid viscosity.Viscosity of Liquids: Theory, Estimation, Experiment, and Data, pages 135-405, 2007."
313,1-Nonodecene,C=CCCCCCCCCCCCCCCCCC,298.15,0.003354016,4.56,0.658964843,0.790450267,0.11,21.44142574,0.849139086,16.26909672,16.29133834,21.980217,30.12832673,"Dabir S Viswanath, Tushar K Ghosh, Dasika HL Prasad, Nidamarty VK Dutt, Kalipatnapu Y Rani, Dabir S Viswanath, Tushar K Ghosh, Dasika HL Prasad, Nidamarty VK Dutt, and Kalipatnapu Y Rani. Correlations and estimation of pure liquid viscosity.Viscosity of Liquids: Theory, Estimation, Experiment, and Data, pages 135-405, 2007."
314,1-eicosene,C=CCCCCCCCCCCCCCCCCCC,301.8,0.003313453,4.94,0.693726949,0.794421702,0.07,21.41087129,0.844062289,16.31723038,16.33916604,23.13235052,29.72664356,"Diego Alonso Saldana, Laurie Starck, Pascal Mougin, Bernard Rousseau, Nicolas Ferrando, and Benoit Creton. Prediction of density and viscosity of biofuel compounds using machine learning methods. Energy & fuels, 26(4):2416-2426, 2012."
315,1-Eicosene,C=CCCCCCCCCCCCCCCCCCC,308.15,0.003245173,4.2,0.62324929,0.787416427,0.12,21.46958416,0.835836711,16.12082835,16.14262972,22.80183249,29.92117822,"Dabir S Viswanath, Tushar K Ghosh, Dasika HL Prasad, Nidamarty VK Dutt, Kalipatnapu Y Rani, Dabir S Viswanath, Tushar K Ghosh, Dasika HL Prasad, Nidamarty VK Dutt, and Kalipatnapu Y Rani. Correlations and estimation of pure liquid viscosity.Viscosity of Liquids: Theory, Estimation, Experiment, and Data, pages 135-405, 2007."
316,3-chloropropylene,C=CCCl,273.68,0.003653902,0.4035,-0.394156461,0.973270264,0.12,24.38630693,8.046586205,16.73604878,18.57003462,7.024316706,33.86809901,"WE Wasburn. International critical tables of numerical data, physics, chemistry and technology. 1st electronic edition. Knovel: Norwich, NY, 2003."
317,3-chloropropylene,C=CCCl,279.13,0.00358256,0.38,-0.420216403,0.968158037,0.13,24.43432673,7.969017071,16.61291927,18.42545615,6.968317155,33.90691089,"WE Wasburn. International critical tables of numerical data, physics, chemistry and technology. 1st electronic edition. Knovel: Norwich, NY, 2003."
318,3-chloropropylene,C=CCCl,284.34,0.003516916,0.3598,-0.443938841,0.948971755,0.21,24.60151485,7.796669054,16.24971889,18.02344184,6.825931853,34.08683168,"WE Wasburn. International critical tables of numerical data, physics, chemistry and technology. 1st electronic edition. Knovel: Norwich, NY, 2003."
319,3-Chloro-1-propene,C=CCCl,288.15,0.003470415,0.347,-0.459670525,0.957546999,0.21,24.51665347,7.846092858,16.39678324,18.17743947,6.883920862,33.99682178,"A Dean John et al. Lange's handbook of chemistry. In Universitas Of Tennese Knoxville, Fifthenth Edition, Mc. Graw Hill Inc, New York. Conference, 1999."
320,3-chloropropylene,C=CCCl,289.81,0.003450537,0.3408,-0.467500414,0.944813922,0.27,24.6329703,7.726101903,16.15133115,17.90422139,6.781441123,34.17786139,"WE Wasburn. International critical tables of numerical data, physics, chemistry and technology. 1st electronic edition. Knovel: Norwich, NY, 2003."
321,3-chloropropylene,C=CCCl,295.08,0.003388911,0.323,-0.490797478,0.941157261,0.28,24.66610891,7.678750415,16.06545725,17.80631401,6.748081411,34.21138614,"WE Wasburn. International critical tables of numerical data, physics, chemistry and technology. 1st electronic edition. Knovel: Norwich, NY, 2003."
322,3-chloropropylene,C=CCCl,301.47,0.00331708,0.3039,-0.5172693,0.935049005,0.29,24.71759406,7.603807454,15.92451461,17.64686877,6.690453927,34.30136634,"WE Wasburn. International critical tables of numerical data, physics, chemistry and technology. 1st electronic edition. Knovel: Norwich, NY, 2003."
323,3-chloropropylene,C=CCCl,307.12,0.003256056,0.2885,-0.539854183,0.920086591,0.32,24.84433663,7.456106966,15.63337488,17.32048487,6.573866025,34.45169307,"WE Wasburn. International critical tables of numerical data, physics, chemistry and technology. 1st electronic edition. Knovel: Norwich, NY, 2003."
324,3-chloropropylene,C=CCCl,311.52,0.003210067,0.2774,-0.556893543,0.917608579,0.41,24.86826733,7.416465024,15.57315869,17.24906401,6.549510144,34.52813861,"WE Wasburn. International critical tables of numerical data, physics, chemistry and technology. 1st electronic edition. Knovel: Norwich, NY, 2003."
325,3-chloropropylene,C=CCCl,315.25,0.003172086,0.2681,-0.571703186,0.912164245,0.42,24.92278218,7.350400521,15.47219269,17.12953242,6.509922777,34.60466337,"WE Wasburn. International critical tables of numerical data, physics, chemistry and technology. 1st electronic edition. Knovel: Norwich, NY, 2003."
326,3-iodopropylene,C=CCI,273.48,0.003656575,0.926,-0.033389013,1.987835255,0.02,24.9809703,6.729968665,18.93944375,20.09969767,8.702765787,34.63309901,"WE Wasburn. International critical tables of numerical data, physics, chemistry and technology. 1st electronic edition. Knovel: Norwich, NY, 2003."