Index,Name,CANON_SMILES,Temperature (K),Inverse temperature (1/K),Viscosity (cP),log(Viscosity),MD_density,MD_FV,MD_Rg,MD_SP_E,MD_SP_V,MD_SP,MD_HV,MD_RMSD,Reference
664,diisononyl phthalate,CC(C)CCCCCCOC(=O)c1ccccc1C(=O)OCCCCCCC(C)C,368.5,0.002713704,4.52,0.655138435,0.921954552,0.22,21.9330396,3.770922523,16.28460387,16.71577925,31.05530864,29.64312871,"Diego Alonso Saldana, Laurie Starck, Pascal Mougin, Bernard Rousseau, Nicolas Ferrando, and Benoit Creton. Prediction of density and viscosity of biofuel compounds using machine learning methods. Energy & fuels, 26(4):2416-2426, 2012."
665,Isooctyl alcohol,CC(C)CCCCCO,288.15,0.003470415,10.6,1.025305865,0.825612318,0.06,21.34230693,12.96391068,15.87859633,20.49897231,16.41465025,28.81007921,"Sunghwan Kim, Paul A Thiessen, Tiejun Cheng, Jian Zhang, Asta Gindulyte, and Evan E Bolton. Pug-view: programmatic access to chemical annotations integrated in pubchem. Journal of cheminformatics, 11(1):1-11, 2019."
666,isoamylamine,CC(C)CCN,298.15,0.003354016,0.7235,-0.140561465,0.78324059,0.15,21.35834653,12.52358873,15.15781741,19.66279645,10.87626487,29.38461386,"WE Wasburn. International critical tables of numerical data, physics, chemistry and technology. 1st electronic edition. Knovel: Norwich, NY, 2003."
667,isoamylaniline,CC(C)CCNc1ccccc1,328.15,0.003047387,1.72,0.235528447,0.900406991,0.1,21.81853465,5.467727921,17.25813047,18.10398068,14.85599124,30.11361386,"WE Wasburn. International critical tables of numerical data, physics, chemistry and technology. 1st electronic edition. Knovel: Norwich, NY, 2003."
668,isoamyl alcohol,CC(C)CCO,273.39,0.003657778,8.461,0.927421695,0.829570444,0.07,21.4170099,16.18028792,15.6823133,22.53335286,13.43851299,29.47890099,"WE Wasburn. International critical tables of numerical data, physics, chemistry and technology. 1st electronic edition. Knovel: Norwich, NY, 2003."
669,isoamyl alcohol,CC(C)CCO,285.06,0.003508033,5.6249,0.750114806,0.822052566,0.12,21.47527723,15.88321367,15.51839854,22.20616448,13.20450897,29.4540099,"WE Wasburn. International critical tables of numerical data, physics, chemistry and technology. 1st electronic edition. Knovel: Norwich, NY, 2003."
670,3-Methyl-1-butanol,CC(C)CCO,288.15,0.003470415,4.81,0.682145076,0.806219099,0.19,21.61626733,15.63276581,15.17641217,21.7881735,12.97827677,29.67949505,"A Dean John et al. Lange's handbook of chemistry. In Universitas Of Tennese Knoxville, Fifthenth Edition, Mc. Graw Hill Inc, New York. Conference, 1999."
671,isoamyl alcohol,CC(C)CCO,296.98,0.00336723,3.8633,0.586958434,0.809367769,0.13,21.59630693,15.51924627,15.23146752,21.74536174,12.89905793,29.74458416,"WE Wasburn. International critical tables of numerical data, physics, chemistry and technology. 1st electronic edition. Knovel: Norwich, NY, 2003."
672,3-Methyl butanol,CC(C)CCO,297.15,0.003365304,3.86,0.586587305,0.808437193,0.23,21.59007921,15.48585038,15.23261547,21.72234138,12.88746998,29.68574257,"Dabir S Viswanath, Tushar K Ghosh, Dasika HL Prasad, Nidamarty VK Dutt, Kalipatnapu Y Rani, Dabir S Viswanath, Tushar K Ghosh, Dasika HL Prasad, Nidamarty VK Dutt, and Kalipatnapu Y Rani. Correlations and estimation of pure liquid viscosity.Viscosity of Liquids: Theory, Estimation, Experiment, and Data, pages 135-405, 2007."
673,3-Methyl-1-butanol,CC(C)CCO,303.15,0.003298697,2.96,0.471291711,0.799020855,0.18,21.68411881,15.25732948,15.0173301,21.40843001,12.6873385,29.8639703,"A Dean John et al. Lange's handbook of chemistry. In Universitas Of Tennese Knoxville, Fifthenth Edition, Mc. Graw Hill Inc, New York. Conference, 1999."
674,isoamyl alcohol,CC(C)CCO,307.4,0.00325309,2.8303,0.451832471,0.797380944,0.15,21.70377228,15.14444514,14.99162172,21.31014575,12.60971818,29.8640396,"WE Wasburn. International critical tables of numerical data, physics, chemistry and technology. 1st electronic edition. Knovel: Norwich, NY, 2003."
675,isoamyl alcohol,CC(C)CCO,320.81,0.00311711,1.9654,0.293450952,0.784064115,0.28,21.82292079,14.69803454,14.72089643,20.80273288,12.26597483,30.09245545,"WE Wasburn. International critical tables of numerical data, physics, chemistry and technology. 1st electronic edition. Knovel: Norwich, NY, 2003."
676,isoamyl alcohol,CC(C)CCO,331.89,0.003013046,1.4847,0.171638709,0.76671056,0.51,21.9760495,14.18937839,14.3495028,20.18104329,11.8511149,30.34916832,"WE Wasburn. International critical tables of numerical data, physics, chemistry and technology. 1st electronic edition. Knovel: Norwich, NY, 2003."
677,isoamyl alcohol,CC(C)CCO,344.2,0.002905288,1.121,0.049605613,0.764418437,0.37,22.00294059,13.87957327,14.313684,19.93865518,11.64113666,30.32894059,"WE Wasburn. International critical tables of numerical data, physics, chemistry and technology. 1st electronic edition. Knovel: Norwich, NY, 2003."
678,isoamyl alcohol,CC(C)CCO,355.02,0.002816743,0.8888,-0.051195954,0.758873928,0.48,22.05365347,13.50203705,14.2277976,19.61525998,11.38753204,30.47134653,"WE Wasburn. International critical tables of numerical data, physics, chemistry and technology. 1st electronic edition. Knovel: Norwich, NY, 2003."
679,isoamyl alcohol,CC(C)CCO,368.09,0.002716727,0.6872,-0.162916849,0.741047836,0.71,22.21988119,12.89486616,13.88175461,18.94756316,10.93851266,30.55147525,"WE Wasburn. International critical tables of numerical data, physics, chemistry and technology. 1st electronic edition. Knovel: Norwich, NY, 2003."
680,isoamyl alcohol,CC(C)CCO,377.73,0.002647394,0.5794,-0.237021509,0.722345725,1.0,22.41742574,12.37078374,13.49636328,18.3087516,10.52779526,30.91913861,"WE Wasburn. International critical tables of numerical data, physics, chemistry and technology. 1st electronic edition. Knovel: Norwich, NY, 2003."
681,isoamyl alcohol,CC(C)CCO,390.75,0.002559181,0.4654,-0.332173621,0.702481224,1.25,22.63247525,11.73501314,13.11152707,17.59716136,10.06401948,31.13312871,"WE Wasburn. International critical tables of numerical data, physics, chemistry and technology. 1st electronic edition. Knovel: Norwich, NY, 2003."
682,isoamyl alcohol,CC(C)CCO,401.25,0.002492212,0.3974,-0.400772137,0.70365301,1.4,22.61072277,11.47895104,13.15005485,17.45635976,9.92147445,31.09477228,"WE Wasburn. International critical tables of numerical data, physics, chemistry and technology. 1st electronic edition. Knovel: Norwich, NY, 2003."
683,decanedioic acid bis-(3-methyl-butyl) ester,CC(C)CCOC(=O)CCCCCCCCC(=O)OCCC(C)C,298.15,0.003354016,11.8,1.071882007,0.927317407,0.05,21.52454455,4.140453209,17.32990272,17.81785691,28.61953073,29.03359406,"Valentin Goussard, Francois Duprat, Jean-Luc Ploix, G erard Dreyfus, Veronique Nardello-Rataj, and Jean-Marie Aubry. A new machine-learning tool for fast estimation of liquid viscosity. application to cosmetic oils. Journal of Chemical Information and Modeling, 60(4):2012-2023, 2020."
684,isoamyl formate,CC(C)CCOC=O,293.15,0.003411223,0.794,-0.100179498,0.884168144,0.11,22.17749505,4.987273609,17.02500815,17.74069064,10.46514976,30.56560396,"WE Wasburn. International critical tables of numerical data, physics, chemistry and technology. 1st electronic edition. Knovel: Norwich, NY, 2003."
685,Isopentyl formate,CC(C)CCOC=O,298.15,0.003354016,0.49,-0.30980392,0.882843618,0.1,22.18988119,4.948516685,16.98166699,17.68818276,10.43142425,30.57955446,"Valentin Goussard, Francois Duprat, Jean-Luc Ploix, G erard Dreyfus, Veronique Nardello-Rataj, and Jean-Marie Aubry. A new machine-learning tool for fast estimation of liquid viscosity. application to cosmetic oils. Journal of Chemical Information and Modeling, 60(4):2012-2023, 2020."
686,Diisopentyl ether,CC(C)CCOCCC(C)C,284.15,0.003519268,1.4,0.146128036,0.789402928,0.08,21.62725743,2.453822075,15.70288028,15.89369994,12.67061573,29.80123762,"A Dean John et al. Lange's handbook of chemistry. In Universitas Of Tennese Knoxville, Fifthenth Edition, Mc. Graw Hill Inc, New York. Conference, 1999."
687,Diisopentyl ether,CC(C)CCOCCC(C)C,293.15,0.003411223,1.012,0.005180513,0.78899577,0.13,21.62556436,2.438869379,15.65867887,15.84771494,12.6247678,29.61422772,"A Dean John et al. Lange's handbook of chemistry. In Universitas Of Tennese Knoxville, Fifthenth Edition, Mc. Graw Hill Inc, New York. Conference, 1999."
688,isobutyl chloride,CC(C)CCl,273.5,0.003656307,0.5816,-0.235375602,0.9120633,0.17,22.92726733,6.211461906,16.27909264,17.42397564,7.907944945,31.62777228,"WE Wasburn. International critical tables of numerical data, physics, chemistry and technology. 1st electronic edition. Knovel: Norwich, NY, 2003."
689,isobutyl chloride,CC(C)CCl,279.12,0.003582688,0.5401,-0.267525823,0.917086477,0.17,22.88347525,6.216654371,16.34638428,17.48871395,7.933300265,31.6310495,"WE Wasburn. International critical tables of numerical data, physics, chemistry and technology. 1st electronic edition. Knovel: Norwich, NY, 2003."
690,isobutyl chloride,CC(C)CCl,285.1,0.003507541,0.5015,-0.299729063,0.898486796,0.2,23.03719802,6.070015875,15.9660486,17.08112095,7.750985298,31.7209901,"WE Wasburn. International critical tables of numerical data, physics, chemistry and technology. 1st electronic edition. Knovel: Norwich, NY, 2003."
691,isobutyl chloride,CC(C)CCl,291.84,0.003426535,0.4637,-0.333762904,0.893191854,0.18,23.08350495,6.010211189,15.83240988,16.93493918,7.683784643,31.9300198,"WE Wasburn. International critical tables of numerical data, physics, chemistry and technology. 1st electronic edition. Knovel: Norwich, NY, 2003."
692,1-Chloro-2-methyl propane,CC(C)CCl,292.15,0.003422899,0.46,-0.337242168,0.88723858,0.26,23.13847525,5.959853886,15.71752802,16.80971592,7.626697221,32.00635644,"Dabir S Viswanath, Tushar K Ghosh, Dasika HL Prasad, Nidamarty VK Dutt, Kalipatnapu Y Rani, Dabir S Viswanath, Tushar K Ghosh, Dasika HL Prasad, Nidamarty VK Dutt, and Kalipatnapu Y Rani. Correlations and estimation of pure liquid viscosity.Viscosity of Liquids: Theory, Estimation, Experiment, and Data, pages 135-405, 2007."
693,1-Chloro-2-methylpropane,CC(C)CCl,293.15,0.003411223,0.462,-0.335358024,0.881360495,0.23,23.1899505,5.927765901,15.59307824,16.68192633,7.568251825,32.0070099,"A Dean John et al. Lange's handbook of chemistry. In Universitas Of Tennese Knoxville, Fifthenth Edition, Mc. Graw Hill Inc, New York. Conference, 1999."
694,isobutyl chloride,CC(C)CCl,296.62,0.003371317,0.4386,-0.357931373,0.88350699,0.3,23.16813861,5.939114485,15.61738544,16.70869258,7.580557281,32.07060396,"WE Wasburn. International critical tables of numerical data, physics, chemistry and technology. 1st electronic edition. Knovel: Norwich, NY, 2003."
695,isobutyl chloride,CC(C)CCl,302.61,0.003304583,0.4102,-0.387004344,0.876753491,0.31,23.22721782,5.859700871,15.46306852,16.53626056,7.50165304,32.12571287,"WE Wasburn. International critical tables of numerical data, physics, chemistry and technology. 1st electronic edition. Knovel: Norwich, NY, 2003."
696,isobutyl chloride,CC(C)CCl,310.47,0.003220923,0.3768,-0.423889106,0.862012162,0.43,23.3529604,5.741275252,15.14665734,16.1983822,7.351403043,32.25224752,"WE Wasburn. International critical tables of numerical data, physics, chemistry and technology. 1st electronic edition. Knovel: Norwich, NY, 2003."
697,1-Chloro-2-methylpropane,CC(C)CCl,313.15,0.003193358,0.373,-0.428291168,0.859617484,0.4,23.38543564,5.725163291,15.09913211,16.14823386,7.33374946,32.20287129,"A Dean John et al. Lange's handbook of chemistry. In Universitas Of Tennese Knoxville, Fifthenth Edition, Mc. Graw Hill Inc, New York. Conference, 1999."
698,isobutyl chloride,CC(C)CCl,315.58,0.003168769,0.3575,-0.446723954,0.855837209,0.48,23.41335644,5.690619414,15.01100152,16.05360387,7.289437133,32.30437624,"WE Wasburn. International critical tables of numerical data, physics, chemistry and technology. 1st electronic edition. Knovel: Norwich, NY, 2003."
699,isobutyl chloride,CC(C)CCl,321.86,0.003106941,0.3359,-0.473789996,0.850588934,0.43,23.46211881,5.628251175,14.89334656,15.92151748,7.233174761,32.33088119,"WE Wasburn. International critical tables of numerical data, physics, chemistry and technology. 1st electronic edition. Knovel: Norwich, NY, 2003."
700,isobutyl chloride,CC(C)CCl,326.89,0.003059133,0.3197,-0.495257364,0.847562309,0.53,23.48971287,5.599097547,14.81431796,15.83726855,7.19687184,32.42459406,"WE Wasburn. International critical tables of numerical data, physics, chemistry and technology. 1st electronic edition. Knovel: Norwich, NY, 2003."
701,isobutyl chloride,CC(C)CCl,333.41,0.00299931,0.3007,-0.521866572,0.82692823,0.81,23.69093069,5.435319059,14.38964324,15.38212951,6.993030918,32.67918812,"WE Wasburn. International critical tables of numerical data, physics, chemistry and technology. 1st electronic edition. Knovel: Norwich, NY, 2003."
702,isobutyl chloride,CC(C)CCl,338.45,0.002954646,0.2877,-0.541060138,0.829912551,0.63,23.66419802,5.437999722,14.43033606,15.42112251,7.012302053,32.64927723,"WE Wasburn. International critical tables of numerical data, physics, chemistry and technology. 1st electronic edition. Knovel: Norwich, NY, 2003."
703,isobutyl iodide,CC(C)CI,273.6,0.003654971,1.154,0.062205809,1.746024204,0.03,23.21632673,5.646215878,18.42289369,19.26877849,9.896215058,32.07825743,"WE Wasburn. International critical tables of numerical data, physics, chemistry and technology. 1st electronic edition. Knovel: Norwich, NY, 2003."
704,isobutyl iodide,CC(C)CI,284.38,0.003516422,0.978,-0.009661145,1.708168043,0.07,23.38371287,5.491998006,17.93813816,18.76012485,9.626850925,32.32040594,"WE Wasburn. International critical tables of numerical data, physics, chemistry and technology. 1st electronic edition. Knovel: Norwich, NY, 2003."
705,isobutyl iodide,CC(C)CI,295.59,0.003383064,0.844,-0.073657553,1.691308481,0.07,23.46107921,5.405899637,17.69960438,18.50683604,9.493985118,32.32848515,"WE Wasburn. International critical tables of numerical data, physics, chemistry and technology. 1st electronic edition. Knovel: Norwich, NY, 2003."
706,1- Iodo-2-methyl propane,CC(C)CI,298.15,0.003354016,0.84,-0.075720714,1.688799137,0.07,23.47644554,5.388793917,17.66284199,18.46668775,9.473647121,32.47621782,"Dabir S Viswanath, Tushar K Ghosh, Dasika HL Prasad, Nidamarty VK Dutt, Kalipatnapu Y Rani, Dabir S Viswanath, Tushar K Ghosh, Dasika HL Prasad, Nidamarty VK Dutt, and Kalipatnapu Y Rani. Correlations and estimation of pure liquid viscosity.Viscosity of Liquids: Theory, Estimation, Experiment, and Data, pages 135-405, 2007."
707,isobutyl iodide,CC(C)CI,306.99,0.003257435,0.739,-0.131355562,1.672360944,0.09,23.54757426,5.308805973,17.44590696,18.23588154,9.355731466,32.54445545,"WE Wasburn. International critical tables of numerical data, physics, chemistry and technology. 1st electronic edition. Knovel: Norwich, NY, 2003."
708,1-Iodo-2-methylpropane,CC(C)CI,313.15,0.003193358,0.697,-0.156767222,1.671316378,0.11,23.55612871,5.278054809,17.40667202,18.18940015,9.328888947,32.55032673,"A Dean John et al. Lange's handbook of chemistry. In Universitas Of Tennese Knoxville, Fifthenth Edition, Mc. Graw Hill Inc, New York. Conference, 1999."
709,isobutyl iodide,CC(C)CI,317.71,0.003147524,0.658,-0.181774106,1.656618358,0.17,23.62317822,5.223455617,17.21607362,17.99115755,9.224771744,32.54665347,"WE Wasburn. International critical tables of numerical data, physics, chemistry and technology. 1st electronic edition. Knovel: Norwich, NY, 2003."
710,isobutyl iodide,CC(C)CI,327.8,0.003050641,0.593,-0.226945307,1.641490015,0.17,23.69453465,5.152181375,17.00885269,17.77216607,9.114178899,32.7240297,"WE Wasburn. International critical tables of numerical data, physics, chemistry and technology. 1st electronic edition. Knovel: Norwich, NY, 2003."
711,isobutyl iodide,CC(C)CI,338.26,0.002956306,0.536,-0.27083521,1.611551376,0.29,23.84178218,5.02954565,16.63282775,17.37675739,8.912891879,32.95679208,"WE Wasburn. International critical tables of numerical data, physics, chemistry and technology. 1st electronic edition. Knovel: Norwich, NY, 2003."
712,isobutyl iodide,CC(C)CI,350.48,0.00285323,0.48,-0.318758763,1.579329639,0.5,24.00672277,4.888147359,16.22823829,16.94855925,8.695983137,33.21482178,"WE Wasburn. International critical tables of numerical data, physics, chemistry and technology. 1st electronic edition. Knovel: Norwich, NY, 2003."
713,isobutyl iodide,CC(C)CI,359.98,0.002777932,0.442,-0.354577731,1.578731991,0.39,24.01078218,4.87833501,16.18875623,16.90797209,8.679614752,33.14935644,"WE Wasburn. International critical tables of numerical data, physics, chemistry and technology. 1st electronic edition. Knovel: Norwich, NY, 2003."
714,isobutyl iodide,CC(C)CI,370.99,0.00269549,0.403,-0.394694954,1.539814119,0.46,24.21206931,4.731580938,15.70926112,16.40651729,8.425624607,33.46540594,"WE Wasburn. International critical tables of numerical data, physics, chemistry and technology. 1st electronic edition. Knovel: Norwich, NY, 2003."
715,isobutyl iodide,CC(C)CI,382.35,0.002615405,0.368,-0.434152181,1.541826649,0.55,24.20352475,4.704112127,15.69982353,16.3895607,8.422294941,33.4549703,"WE Wasburn. International critical tables of numerical data, physics, chemistry and technology. 1st electronic edition. Knovel: Norwich, NY, 2003."
716,isobutyl iodide,CC(C)CI,389.22,0.002569241,0.349,-0.457174573,1.504043727,0.72,24.39939604,4.578479185,15.26214622,15.93422378,8.198056018,33.71251485,"WE Wasburn. International critical tables of numerical data, physics, chemistry and technology. 1st electronic edition. Knovel: Norwich, NY, 2003."
717,isobutyl alcohol,CC(C)CO,273.6,0.003654971,7.9111,0.898236874,0.83189588,0.08,21.45237624,17.47900806,15.69951996,23.49477205,12.29904424,29.65344554,"WE Wasburn. International critical tables of numerical data, physics, chemistry and technology. 1st electronic edition. Knovel: Norwich, NY, 2003."
718,isobutyl alcohol,CC(C)CO,283.05,0.003532945,5.5735,0.746128006,0.822305161,0.09,21.53508911,17.14642372,15.52576223,23.13156441,12.09008047,29.80387129,"WE Wasburn. International critical tables of numerical data, physics, chemistry and technology. 1st electronic edition. Knovel: Norwich, NY, 2003."
719,2-Methyl-1-propanol,CC(C)CO,288.15,0.003470415,4.7,0.672097858,0.816274057,0.14,21.59047525,16.96876241,15.38525402,22.90551965,11.95952931,29.84041584,"A Dean John et al. Lange's handbook of chemistry. In Universitas Of Tennese Knoxville, Fifthenth Edition, Mc. Graw Hill Inc, New York. Conference, 1999."
720,isobutyl alcohol,CC(C)CO,291.95,0.003425244,3.93,0.59439255,0.813394609,0.13,21.61931683,16.87870424,15.30817864,22.7870286,11.8894754,29.80425743,"WE Wasburn. International critical tables of numerical data, physics, chemistry and technology. 1st electronic edition. Knovel: Norwich, NY, 2003."
721,isobutyl alcohol,CC(C)CO,300.92,0.003323142,3.0658,0.48654382,0.806030116,0.16,21.68233663,16.4873057,15.20857509,22.43095877,11.6567588,29.97308911,"WE Wasburn. International critical tables of numerical data, physics, chemistry and technology. 1st electronic edition. Knovel: Norwich, NY, 2003."
722,2-Methyl-1-propanol,CC(C)CO,303.15,0.003298697,2.876,0.458788882,0.798423142,0.14,21.74768317,16.34582194,15.04210892,22.21424989,11.55189237,30.06348515,"A Dean John et al. Lange's handbook of chemistry. In Universitas Of Tennese Knoxville, Fifthenth Edition, Mc. Graw Hill Inc, New York. Conference, 1999."
723,isobutyl alcohol,CC(C)CO,311.31,0.003212232,2.2392,0.350092886,0.796621172,0.23,21.76342574,16.15137272,14.9951055,22.0394666,11.42086853,30.11042574,"WE Wasburn. International critical tables of numerical data, physics, chemistry and technology. 1st electronic edition. Knovel: Norwich, NY, 2003."
724,isobutyl alcohol,CC(C)CO,320.59,0.003119249,1.7217,0.23595748,0.787249255,0.19,21.85422772,15.74970133,14.83902672,21.6395405,11.17482162,30.14348515,"WE Wasburn. International critical tables of numerical data, physics, chemistry and technology. 1st electronic edition. Knovel: Norwich, NY, 2003."