Index,Name,CANON_SMILES,Temperature (K),Inverse temperature (1/K),Viscosity (cP),log(Viscosity),MD_density,MD_FV,MD_Rg,MD_SP_E,MD_SP_V,MD_SP,MD_HV,MD_RMSD,Reference
1070,Butanenitrile,CCCC#N,273.15,0.003660992,0.8,-0.096910013,0.774293735,0.14,23.11649505,12.0782893,15.26355831,19.46442359,8.624511484,31.97868317,"Sunghwan Kim, Paul A Thiessen, Tiejun Cheng, Jian Zhang, Asta Gindulyte, and Evan E Bolton. Pug-view: programmatic access to chemical annotations integrated in pubchem. Journal of cheminformatics, 11(1):1-11, 2019."
1071,Butanenitrile,CCCC#N,293.15,0.003411223,0.6,-0.22184875,0.751599462,0.23,23.34386139,11.69559018,14.70540162,18.7893235,8.340766205,32.34005941,"Sunghwan Kim, Paul A Thiessen, Tiejun Cheng, Jian Zhang, Asta Gindulyte, and Evan E Bolton. Pug-view: programmatic access to chemical annotations integrated in pubchem. Journal of cheminformatics, 11(1):1-11, 2019."
1072,Butanenitrile,CCCC#N,313.15,0.003193358,0.5,-0.301029996,0.717830571,0.6,23.70415842,11.17783802,13.923307,17.85512639,7.957796235,32.8319802,"Sunghwan Kim, Paul A Thiessen, Tiejun Cheng, Jian Zhang, Asta Gindulyte, and Evan E Bolton. Pug-view: programmatic access to chemical annotations integrated in pubchem. Journal of cheminformatics, 11(1):1-11, 2019."
1073,butanenitrile,CCCC#N,322.15,0.003104144,0.515228645,-0.288,0.713673737,0.66,23.75884158,11.08655026,13.80031233,17.70209302,7.892491033,32.90707921,"Marina Cocchi, Pier Giuseppe De Benedetti, Renato Seeber, Lorenzo Tassi, and Alessandro Ulrici. Development of quantitative structure- property relationships using calculated descriptors for the prediction of the physicochemical properties of a series of organic solvents. Journal of chemical information and computer sciences, 39(6):1190-1203, 1999."
1074,dipropyl ketone,CCCC(=O)CCC,298.15,0.003354016,0.685,-0.164309429,0.809856821,0.13,22.00036634,6.762377549,16.39979223,17.73946477,11.19727474,30.36326733,"WE Wasburn. International critical tables of numerical data, physics, chemistry and technology. 1st electronic edition. Knovel: Norwich, NY, 2003."
1075,n-butyric acid,CCCC(=O)O,276.36,0.003618469,2.128,0.327971624,0.99895899,0.02,21.87791089,18.87322023,18.40426125,26.36145484,15.19810959,30.14914851,"WE Wasburn. International critical tables of numerical data, physics, chemistry and technology. 1st electronic edition. Knovel: Norwich, NY, 2003."
1076,n-butyric acid,CCCC(=O)O,283.15,0.003531697,1.92,0.283301229,1.003838896,0.03,21.84489109,18.85889804,18.50023611,26.41833782,15.2033598,30.10862376,"WE Wasburn. International critical tables of numerical data, physics, chemistry and technology. 1st electronic edition. Knovel: Norwich, NY, 2003."
1077,n-butyric acid,CCCC(=O)O,291.17,0.00343442,1.591,0.20167018,0.984320693,0.04,21.98392079,18.44473145,18.08280012,25.83036791,14.85241985,30.46589109,"WE Wasburn. International critical tables of numerical data, physics, chemistry and technology. 1st electronic edition. Knovel: Norwich, NY, 2003."
1078,n-butyric acid,CCCC(=O)O,303.15,0.003298697,1.341,0.127428778,0.966927958,0.06,22.12045545,18.13520798,17.72039966,25.35579938,14.60395584,30.6670495,"WE Wasburn. International critical tables of numerical data, physics, chemistry and technology. 1st electronic edition. Knovel: Norwich, NY, 2003."
1079,n-butyric acid,CCCC(=O)O,304.98,0.003278904,1.263,0.101403351,0.977215643,0.07,22.03829703,18.23030288,17.92298359,25.56544029,14.69023444,30.44779208,"WE Wasburn. International critical tables of numerical data, physics, chemistry and technology. 1st electronic edition. Knovel: Norwich, NY, 2003."
1080,n-butyric acid,CCCC(=O)O,317.64,0.003148218,1.049,0.020775488,0.960468211,0.06,22.17040594,17.82091315,17.57912341,25.03251553,14.3697806,30.63833663,"WE Wasburn. International critical tables of numerical data, physics, chemistry and technology. 1st electronic edition. Knovel: Norwich, NY, 2003."
1081,n-butyric acid,CCCC(=O)O,332.54,0.003007157,0.86,-0.065501549,0.943752924,0.11,22.29951485,17.32596401,17.21599708,24.42534341,13.97271385,30.79614851,"WE Wasburn. International critical tables of numerical data, physics, chemistry and technology. 1st electronic edition. Knovel: Norwich, NY, 2003."
1082,n-butyric acid,CCCC(=O)O,346.51,0.00288592,0.727,-0.138465589,0.931289338,0.21,22.4049901,16.98721789,16.94876199,23.99669252,13.70929321,30.96476238,"WE Wasburn. International critical tables of numerical data, physics, chemistry and technology. 1st electronic edition. Knovel: Norwich, NY, 2003."
1083,n-butyric acid,CCCC(=O)O,359.7,0.002780095,0.628,-0.202040356,0.921188549,0.23,22.47628713,16.6719935,16.75390327,23.63614961,13.48569117,31.05705941,"WE Wasburn. International critical tables of numerical data, physics, chemistry and technology. 1st electronic edition. Knovel: Norwich, NY, 2003."
1084,n-butyric acid,CCCC(=O)O,374.7,0.002668802,0.537,-0.270025714,0.906534592,0.23,22.59564356,16.25258329,16.44493784,23.12136688,13.16281953,31.19907921,"WE Wasburn. International critical tables of numerical data, physics, chemistry and technology. 1st electronic edition. Knovel: Norwich, NY, 2003."
1085,n-butyric acid,CCCC(=O)O,388.39,0.002574732,0.47,-0.327902142,0.891130656,0.27,22.73226733,15.88777575,16.13005184,22.64107964,12.8853378,31.37970297,"WE Wasburn. International critical tables of numerical data, physics, chemistry and technology. 1st electronic edition. Knovel: Norwich, NY, 2003."
1086,n-butyric acid,CCCC(=O)O,403.41,0.002478868,0.408,-0.389339837,0.875042428,0.43,22.86818812,15.43913004,15.80363791,22.0939951,12.54897651,31.60030693,"WE Wasburn. International critical tables of numerical data, physics, chemistry and technology. 1st electronic edition. Knovel: Norwich, NY, 2003."
1087,methyl butanoate,CCCC(=O)OC,273.1,0.003661662,0.76,-0.119186408,0.933061681,0.03,22.03414851,7.170708868,18.02641508,19.40044459,10.38934017,30.4229505,"Diego Alonso Saldana, Laurie Starck, Pascal Mougin, Bernard Rousseau, Nicolas Ferrando, and Benoit Creton. Prediction of density and viscosity of biofuel compounds using machine learning methods. Energy & fuels, 26(4):2416-2426, 2012."
1088,methyl n-butyrate,CCCC(=O)OC,273.47,0.003656708,0.7551,-0.12199553,0.925596967,0.05,22.09651485,7.096405353,17.86612055,19.2239891,10.28975015,30.55479208,"WE Wasburn. International critical tables of numerical data, physics, chemistry and technology. 1st electronic edition. Knovel: Norwich, NY, 2003."
1089,methyl butanoate,CCCC(=O)OC,273.5,0.003656307,0.76,-0.119186408,0.926192388,0.05,22.08922772,7.097495799,17.881272,19.23846799,10.29821257,30.5949901,"Diego Alonso Saldana, Laurie Starck, Pascal Mougin, Bernard Rousseau, Nicolas Ferrando, and Benoit Creton. Prediction of density and viscosity of biofuel compounds using machine learning methods. Energy & fuels, 26(4):2416-2426, 2012."
1090,methyl butanoate,CCCC(=O)OC,283.1,0.003532321,0.66,-0.180456065,0.924235391,0.05,22.10462376,7.053911237,17.80195207,19.14866003,10.24691128,30.51448515,"Diego Alonso Saldana, Laurie Starck, Pascal Mougin, Bernard Rousseau, Nicolas Ferrando, and Benoit Creton. Prediction of density and viscosity of biofuel compounds using machine learning methods. Energy & fuels, 26(4):2416-2426, 2012."
1091,methyl butanoate,CCCC(=O)OC,293.1,0.003411805,0.58,-0.236572006,0.913134124,0.06,22.19412871,6.889229582,17.52928719,18.83462654,10.0656444,30.68853465,"Diego Alonso Saldana, Laurie Starck, Pascal Mougin, Bernard Rousseau, Nicolas Ferrando, and Benoit Creton. Prediction of density and viscosity of biofuel compounds using machine learning methods. Energy & fuels, 26(4):2416-2426, 2012."
1092,Methyl butanoate,CCCC(=O)OC,293.15,0.003411223,0.58,-0.236572006,0.914714083,0.03,22.18253465,6.907834544,17.5498568,18.86056748,10.07545603,30.56064356,"A Dean John et al. Lange's handbook of chemistry. In Universitas Of Tennese Knoxville, Fifthenth Edition, Mc. Graw Hill Inc, New York. Conference, 1999."
1093,methyl butanoate,CCCC(=O)OC,293.5,0.003407155,0.57,-0.244125144,0.911196915,0.07,22.20953465,6.895180172,17.47256883,18.78403851,10.03562382,30.68652475,"Diego Alonso Saldana, Laurie Starck, Pascal Mougin, Bernard Rousseau, Nicolas Ferrando, and Benoit Creton. Prediction of density and viscosity of biofuel compounds using machine learning methods. Energy & fuels, 26(4):2416-2426, 2012."
1094,methyl n-butyrate,CCCC(=O)OC,293.53,0.003406807,0.5727,-0.242072817,0.905484404,0.1,22.25828713,6.827123459,17.35740738,18.65191656,9.961974926,30.78125743,"WE Wasburn. International critical tables of numerical data, physics, chemistry and technology. 1st electronic edition. Knovel: Norwich, NY, 2003."
1095,methyl butanoate,CCCC(=O)OC,298.1,0.003354579,0.53,-0.27572413,0.9051921,0.11,22.25967327,6.817921565,17.32874628,18.62190357,9.943924358,30.77355446,"Diego Alonso Saldana, Laurie Starck, Pascal Mougin, Bernard Rousseau, Nicolas Ferrando, and Benoit Creton. Prediction of density and viscosity of biofuel compounds using machine learning methods. Energy & fuels, 26(4):2416-2426, 2012."
1096,methyl butanoate,CCCC(=O)OC,303.1,0.003299241,0.51,-0.292429824,0.899199801,0.1,22.30538614,6.738319709,17.18619655,18.46015767,9.853338516,30.87754455,"Diego Alonso Saldana, Laurie Starck, Pascal Mougin, Bernard Rousseau, Nicolas Ferrando, and Benoit Creton. Prediction of density and viscosity of biofuel compounds using machine learning methods. Energy & fuels, 26(4):2416-2426, 2012."
1097,methyl n-butyrate,CCCC(=O)OC,303.79,0.003291748,0.5049,-0.296794629,0.90380653,0.1,22.27479208,6.78565051,17.2812511,18.56591224,9.913329347,30.76876238,"WE Wasburn. International critical tables of numerical data, physics, chemistry and technology. 1st electronic edition. Knovel: Norwich, NY, 2003."
1098,methyl butanoate,CCCC(=O)OC,303.8,0.003291639,0.5,-0.301029996,0.900709085,0.12,22.30248515,6.746339452,17.22180379,18.49623652,9.875375587,30.83034653,"Diego Alonso Saldana, Laurie Starck, Pascal Mougin, Bernard Rousseau, Nicolas Ferrando, and Benoit Creton. Prediction of density and viscosity of biofuel compounds using machine learning methods. Energy & fuels, 26(4):2416-2426, 2012."
1099,Methyl butanoate,CCCC(=O)OC,313.15,0.003193358,0.459,-0.338187315,0.890681428,0.14,22.38554455,6.624849282,16.9693692,18.21688107,9.717251863,30.92183168,"A Dean John et al. Lange's handbook of chemistry. In Universitas Of Tennese Knoxville, Fifthenth Edition, Mc. Graw Hill Inc, New York. Conference, 1999."
1100,methyl n-butyrate,CCCC(=O)OC,313.73,0.003187454,0.4503,-0.346498053,0.891832845,0.13,22.37260396,6.648216822,16.99013494,18.24469027,9.734417952,30.92294059,"WE Wasburn. International critical tables of numerical data, physics, chemistry and technology. 1st electronic edition. Knovel: Norwich, NY, 2003."
1101,methyl n-butyrate,CCCC(=O)OC,323.45,0.003091668,0.4058,-0.391687957,0.87795867,0.26,22.49053465,6.490160221,16.66089643,17.88053633,9.531959406,31.11324752,"WE Wasburn. International critical tables of numerical data, physics, chemistry and technology. 1st electronic edition. Knovel: Norwich, NY, 2003."
1102,methyl n-butyrate,CCCC(=O)OC,333.35,0.00299985,0.3667,-0.43568909,0.865060796,0.34,22.60136634,6.341068485,16.3552322,17.54165773,9.345442564,31.18485149,"WE Wasburn. International critical tables of numerical data, physics, chemistry and technology. 1st electronic edition. Knovel: Norwich, NY, 2003."
1103,methyl n-butyrate,CCCC(=O)OC,344.65,0.002901494,0.3295,-0.482144581,0.854120127,0.4,22.699,6.206024426,16.08557051,17.24148016,9.180727136,31.42527723,"WE Wasburn. International critical tables of numerical data, physics, chemistry and technology. 1st electronic edition. Knovel: Norwich, NY, 2003."
1104,methyl n-butyrate,CCCC(=O)OC,352.6,0.002836075,0.3057,-0.514704561,0.840364569,0.38,22.82447525,6.078494721,15.77433637,16.90516373,9.001997605,31.41152475,"WE Wasburn. International critical tables of numerical data, physics, chemistry and technology. 1st electronic edition. Knovel: Norwich, NY, 2003."
1105,methyl n-butyrate,CCCC(=O)OC,363.78,0.002748914,0.2767,-0.557990841,0.833117018,0.42,22.8840297,5.977258681,15.584875,16.69200973,8.886622699,31.60967327,"WE Wasburn. International critical tables of numerical data, physics, chemistry and technology. 1st electronic edition. Knovel: Norwich, NY, 2003."
1106,methyl n-butyrate,CCCC(=O)OC,371.43,0.002692297,0.2592,-0.586365003,0.8224169,0.6,22.99277228,5.874939348,15.34800319,16.4341714,8.754501337,31.7030297,"WE Wasburn. International critical tables of numerical data, physics, chemistry and technology. 1st electronic edition. Knovel: Norwich, NY, 2003."
1107,Butyric anhydride,CCCC(=O)OC(=O)CCC,293.15,0.003411223,1.59,0.201397124,0.981649514,0.05,22.03792079,6.83615733,18.68423394,19.89577315,15.82913797,30.28942574,"Sunghwan Kim, Paul A Thiessen, Tiejun Cheng, Jian Zhang, Asta Gindulyte, and Evan E Bolton. Pug-view: programmatic access to chemical annotations integrated in pubchem. Journal of cheminformatics, 11(1):1-11, 2019."
1108,Ethyl butanoate,CCCC(=O)OCC,288.15,0.003470415,0.771,-0.112945622,0.893618298,0.07,22.09886139,5.794576617,17.44207504,18.3795501,11.06762545,30.53165347,"A Dean John et al. Lange's handbook of chemistry. In Universitas Of Tennese Knoxville, Fifthenth Edition, Mc. Graw Hill Inc, New York. Conference, 1999."
1109,ethyl n-butyrate,CCCC(=O)OCC,343.15,0.002914177,0.381,-0.419075024,0.837508575,0.49,22.56909901,5.201621021,16.01014219,16.83419239,10.07615535,31.07931683,"WE Wasburn. International critical tables of numerical data, physics, chemistry and technology. 1st electronic edition. Knovel: Norwich, NY, 2003."
1110,isobutyl n-butyrate,CCCC(=O)OCC(C)C,298.15,0.003354016,0.84,-0.075720714,0.876950666,0.15,21.91175248,4.528269559,16.87020639,17.4675458,12.58484379,30.22322772,"WE Wasburn. International critical tables of numerical data, physics, chemistry and technology. 1st electronic edition. Knovel: Norwich, NY, 2003."
1111,"1,2,3-tris-butyryloxy-propane",CCCC(=O)OCC(COC(=O)CCC)OC(=O)CCC,298.15,0.003354016,8.7,0.939519253,1.047189275,0.01,21.71842574,7.002933717,18.24234918,19.54054593,26.94318805,27.65687129,"Valentin Goussard, Francois Duprat, Jean-Luc Ploix, G erard Dreyfus, Veronique Nardello-Rataj, and Jean-Marie Aubry. A new machine-learning tool for fast estimation of liquid viscosity. application to cosmetic oils. Journal of Chemical Information and Modeling, 60(4):2012-2023, 2020."
1112,ethyl propylacetoacetate,CCCC(C(C)=O)C(=O)OCC,293.15,0.003411223,2.264,0.354876423,0.982186989,0.03,21.83547525,8.57325276,18.0401227,19.9738451,17.30239879,30.08268317,"WE Wasburn. International critical tables of numerical data, physics, chemistry and technology. 1st electronic edition. Knovel: Norwich, NY, 2003."
1113,"2,2,4-Trimethylpentane",CCCC(C)(C)C,293.15,0.003411223,0.502,-0.299296283,0.69200974,0.31,21.86563366,0.49681818,14.57714658,14.58563338,7.945199654,30.02724752,"A Dean John et al. Lange's handbook of chemistry. In Universitas Of Tennese Knoxville, Fifthenth Edition, Mc. Graw Hill Inc, New York. Conference, 1999."
1114,"2,2-dimethylpentane",CCCC(C)(C)C,298.15,0.003354016,0.31,-0.508638306,0.686477794,0.47,21.92857426,0.489864396,14.42949265,14.43783485,7.864832207,30.14891089,"Valentin Goussard, Francois Duprat, Jean-Luc Ploix, G erard Dreyfus, Veronique Nardello-Rataj, and Jean-Marie Aubry. A new machine-learning tool for fast estimation of liquid viscosity. application to cosmetic oils. Journal of Chemical Information and Modeling, 60(4):2012-2023, 2020."
1115,methyl propyl ketone,CCCC(C)=O,273.53,0.003655906,0.6404,-0.193548677,0.839253502,0.07,22.0030297,8.979126556,17.11806368,19.33021743,9.709212208,30.38411881,"WE Wasburn. International critical tables of numerical data, physics, chemistry and technology. 1st electronic edition. Knovel: Norwich, NY, 2003."
1116,methyl propyl ketone,CCCC(C)=O,282.55,0.003539197,0.5692,-0.244735109,0.825511351,0.14,22.1250198,8.790021251,16.76615118,18.9306994,9.49850009,30.57309901,"WE Wasburn. International critical tables of numerical data, physics, chemistry and technology. 1st electronic edition. Knovel: Norwich, NY, 2003."
1117,Methyl propyl ketone,CCCC(C)=O,291.15,0.003434656,0.51,-0.292429824,0.815480242,0.14,22.214,8.657764445,16.51979331,18.65112627,9.360290598,30.64807921,"Dabir S Viswanath, Tushar K Ghosh, Dasika HL Prasad, Nidamarty VK Dutt, Kalipatnapu Y Rani, Dabir S Viswanath, Tushar K Ghosh, Dasika HL Prasad, Nidamarty VK Dutt, and Kalipatnapu Y Rani. Correlations and estimation of pure liquid viscosity.Viscosity of Liquids: Theory, Estimation, Experiment, and Data, pages 135-405, 2007."
1118,methyl propyl ketone,CCCC(C)=O,291.45,0.00343112,0.5109,-0.291664097,0.81503425,0.13,22.22117822,8.638254048,16.49855131,18.62324735,9.339440684,30.64644554,"WE Wasburn. International critical tables of numerical data, physics, chemistry and technology. 1st electronic edition. Knovel: Norwich, NY, 2003."
1119,methyl propyl ketone,CCCC(C)=O,300.92,0.003323142,0.4592,-0.337998121,0.803953292,0.18,22.31893069,8.499471582,16.22271185,18.31449236,9.186980636,30.87931683,"WE Wasburn. International critical tables of numerical data, physics, chemistry and technology. 1st electronic edition. Knovel: Norwich, NY, 2003."
1120,methyl propyl ketone,CCCC(C)=O,308.58,0.003240651,0.4234,-0.373249146,0.787774883,0.23,22.46765347,8.30332465,15.83558788,17.88055182,8.968135698,30.97905941,"WE Wasburn. International critical tables of numerical data, physics, chemistry and technology. 1st electronic edition. Knovel: Norwich, NY, 2003."
1121,methyl propyl ketone,CCCC(C)=O,318.44,0.003140309,0.3831,-0.416687848,0.778630052,0.36,22.56125743,8.16177519,15.59693871,17.6034821,8.825918672,31.06581188,"WE Wasburn. International critical tables of numerical data, physics, chemistry and technology. 1st electronic edition. Knovel: Norwich, NY, 2003."
1122,methyl propyl ketone,CCCC(C)=O,327.09,0.003057263,0.3525,-0.452840879,0.776841916,0.29,22.57590099,8.102307648,15.52090498,17.5085886,8.773686126,31.17354455,"WE Wasburn. International critical tables of numerical data, physics, chemistry and technology. 1st electronic edition. Knovel: Norwich, NY, 2003."
1123,methyl propyl ketone,CCCC(C)=O,335.39,0.002981604,0.3262,-0.486516043,0.768319793,0.45,22.65841584,7.990078583,15.31819111,17.2769798,8.664414396,31.32917822,"WE Wasburn. International critical tables of numerical data, physics, chemistry and technology. 1st electronic edition. Knovel: Norwich, NY, 2003."
1124,methyl propyl ketone,CCCC(C)=O,345.89,0.002891093,0.298,-0.525783736,0.768485506,0.38,22.66036634,7.963167403,15.27700128,17.22801241,8.638294366,31.26480198,"WE Wasburn. International critical tables of numerical data, physics, chemistry and technology. 1st electronic edition. Knovel: Norwich, NY, 2003."
1125,methyl propyl ketone,CCCC(C)=O,353.79,0.002826536,0.2787,-0.554863031,0.748878755,0.68,22.84644554,7.747741715,14.82378939,16.72655079,8.394096187,31.5449802,"WE Wasburn. International critical tables of numerical data, physics, chemistry and technology. 1st electronic edition. Knovel: Norwich, NY, 2003."
1126,methyl propyl ketone,CCCC(C)=O,363.21,0.002753228,0.2574,-0.589391457,0.734214187,0.76,23.01488119,7.571069381,14.46533407,16.32700468,8.196120645,31.76369307,"WE Wasburn. International critical tables of numerical data, physics, chemistry and technology. 1st electronic edition. Knovel: Norwich, NY, 2003."
1127,methyl propyl ketone,CCCC(C)=O,371.92,0.00268875,0.24,-0.619788758,0.729169045,0.77,23.06114851,7.47624487,14.33729599,16.16962188,8.120782087,31.83362376,"WE Wasburn. International critical tables of numerical data, physics, chemistry and technology. 1st electronic edition. Knovel: Norwich, NY, 2003."