Index,Name,CANON_SMILES,Temperature (K),Inverse temperature (1/K),Viscosity (cP),log(Viscosity),MD_density,MD_FV,MD_Rg,MD_SP_E,MD_SP_V,MD_SP,MD_HV,MD_RMSD,Reference
2388,N-methylformamide,CNC=O,288.15,0.003470415,1.99,0.298853076,1.024053427,0.0,21.99739604,23.49097965,20.56226935,31.21923911,14.0088697,30.54088119,"Sunghwan Kim, Paul A Thiessen, Tiejun Cheng, Jian Zhang, Asta Gindulyte, and Evan E Bolton. Pug-view: programmatic access to chemical annotations integrated in pubchem. Journal of cheminformatics, 11(1):1-11, 2019."
2389,2-methylaminoethanol,CNCCO,293.15,0.003411223,13.0,1.113943352,0.953152029,0.02,21.06729703,23.36005995,15.29645911,27.9230727,15.26761318,29.16463366,"Sunghwan Kim, Paul A Thiessen, Tiejun Cheng, Jian Zhang, Asta Gindulyte, and Evan E Bolton. Pug-view: programmatic access to chemical annotations integrated in pubchem. Journal of cheminformatics, 11(1):1-11, 2019."
2390,Methylhydrazine,CNN,298.15,0.003354016,0.775,-0.110698298,0.934859591,0.07,20.87727723,24.36159892,15.64336552,28.95212326,10.46576844,28.94164356,"Sunghwan Kim, Paul A Thiessen, Tiejun Cheng, Jian Zhang, Asta Gindulyte, and Evan E Bolton. Pug-view: programmatic access to chemical annotations integrated in pubchem. Journal of cheminformatics, 11(1):1-11, 2019."
2391,methylaniline,CNc1ccccc1,283.15,0.003531697,3.065,0.486430479,0.998069644,0.02,21.89445545,10.67788362,18.81444592,21.63362799,12.57208123,30.1159901,"WE Wasburn. International critical tables of numerical data, physics, chemistry and technology. 1st electronic edition. Knovel: Norwich, NY, 2003."
2392,N-methylaniline,CNc1ccccc1,288.15,0.003470415,2.568,0.409595019,0.999608317,0.03,21.88254455,10.62473034,18.82564318,21.61713558,12.54529001,30.18405941,"Sunghwan Kim, Paul A Thiessen, Tiejun Cheng, Jian Zhang, Asta Gindulyte, and Evan E Bolton. Pug-view: programmatic access to chemical annotations integrated in pubchem. Journal of cheminformatics, 11(1):1-11, 2019."
2393,methylaniline,CNc1ccccc1,313.15,0.003193358,1.466,0.16613397,0.97635631,0.04,22.05447525,9.906782507,18.2876836,20.79888545,11.96968149,30.41779208,"WE Wasburn. International critical tables of numerical data, physics, chemistry and technology. 1st electronic edition. Knovel: Norwich, NY, 2003."
2394,methylaniline,CNc1ccccc1,343.15,0.002914177,0.886,-0.052566278,0.942214209,0.05,22.32113861,9.065645813,17.52329564,19.72977352,11.26273099,30.80452475,"WE Wasburn. International critical tables of numerical data, physics, chemistry and technology. 1st electronic edition. Knovel: Norwich, NY, 2003."
2395,methanol,CO,233.1,0.004290004,1.69,0.227886705,0.83794983,0.04,21.95771287,28.36817847,13.21173228,31.29418572,9.413499945,30.54141584,"Diego Alonso Saldana, Laurie Starck, Pascal Mougin, Bernard Rousseau, Nicolas Ferrando, and Benoit Creton. Prediction of density and viscosity of biofuel compounds using machine learning methods. Energy & fuels, 26(4):2416-2426, 2012."
2396,methanol,CO,243.1,0.004113534,1.36,0.133538908,0.829802785,0.06,22.03114851,27.9779223,13.09661723,30.89183953,9.290350981,30.6229505,"Diego Alonso Saldana, Laurie Starck, Pascal Mougin, Bernard Rousseau, Nicolas Ferrando, and Benoit Creton. Prediction of density and viscosity of biofuel compounds using machine learning methods. Energy & fuels, 26(4):2416-2426, 2012."
2397,methanol,CO,253.1,0.003951008,1.11,0.045322979,0.813290671,0.07,22.18242574,27.42623071,12.83549883,30.28147646,9.137441881,30.82730693,"Diego Alonso Saldana, Laurie Starck, Pascal Mougin, Bernard Rousseau, Nicolas Ferrando, and Benoit Creton. Prediction of density and viscosity of biofuel compounds using machine learning methods. Energy & fuels, 26(4):2416-2426, 2012."
2398,methanol,CO,263.1,0.003800836,0.92,-0.036212173,0.807849261,0.08,22.22814851,27.11065717,12.777567,29.97123751,9.038279742,30.96890099,"Diego Alonso Saldana, Laurie Starck, Pascal Mougin, Bernard Rousseau, Nicolas Ferrando, and Benoit Creton. Prediction of density and viscosity of biofuel compounds using machine learning methods. Energy & fuels, 26(4):2416-2426, 2012."
2399,methanol,CO,273.1,0.003661662,0.78,-0.107905397,0.789824499,0.15,22.39531683,26.52207659,12.4880967,29.31538009,8.875461221,31.1600396,"Diego Alonso Saldana, Laurie Starck, Pascal Mougin, Bernard Rousseau, Nicolas Ferrando, and Benoit Creton. Prediction of density and viscosity of biofuel compounds using machine learning methods. Energy & fuels, 26(4):2416-2426, 2012."
2400,Methanol,CO,283.15,0.003531697,0.676,-0.170053304,0.78159841,0.18,22.48085149,26.1166521,12.39314161,28.9083622,8.75094258,31.2390495,"A Dean John et al. Lange's handbook of chemistry. In Universitas Of Tennese Knoxville, Fifthenth Edition, Mc. Graw Hill Inc, New York. Conference, 1999."
2401,methanol,CO,288.1,0.003471017,0.63,-0.200659451,0.778605196,0.2,22.50189109,25.93538493,12.39499654,28.74550191,8.699908454,31.3090495,"Diego Alonso Saldana, Laurie Starck, Pascal Mougin, Bernard Rousseau, Nicolas Ferrando, and Benoit Creton. Prediction of density and viscosity of biofuel compounds using machine learning methods. Energy & fuels, 26(4):2416-2426, 2012."
2402,methanol,CO,293.1,0.003411805,0.58,-0.236572006,0.773611774,0.18,22.55072277,25.7183407,12.31512768,28.51527733,8.631800857,31.42223762,"Diego Alonso Saldana, Laurie Starck, Pascal Mougin, Bernard Rousseau, Nicolas Ferrando, and Benoit Creton. Prediction of density and viscosity of biofuel compounds using machine learning methods. Energy & fuels, 26(4):2416-2426, 2012."
2403,methanol,CO,298.1,0.003354579,0.54,-0.26760624,0.7621364,0.27,22.66185149,25.3481617,12.16615483,28.11710168,8.536358494,31.50516832,"Diego Alonso Saldana, Laurie Starck, Pascal Mougin, Bernard Rousseau, Nicolas Ferrando, and Benoit Creton. Prediction of density and viscosity of biofuel compounds using machine learning methods. Energy & fuels, 26(4):2416-2426, 2012."
2404,methanol,CO,308.1,0.003245699,0.47,-0.327902142,0.752408042,0.33,22.7639802,24.93697375,12.02177726,27.68392557,8.412900321,31.68467327,"Diego Alonso Saldana, Laurie Starck, Pascal Mougin, Bernard Rousseau, Nicolas Ferrando, and Benoit Creton. Prediction of density and viscosity of biofuel compounds using machine learning methods. Energy & fuels, 26(4):2416-2426, 2012."
2405,methanol,CO,318.1,0.003143666,0.42,-0.37675071,0.740154954,0.46,22.88268317,24.42377883,11.87593575,27.15848364,8.263780858,31.88378218,"Diego Alonso Saldana, Laurie Starck, Pascal Mougin, Bernard Rousseau, Nicolas Ferrando, and Benoit Creton. Prediction of density and viscosity of biofuel compounds using machine learning methods. Energy & fuels, 26(4):2416-2426, 2012."
2406,methanol,CO,328.1,0.003047851,0.37,-0.431798276,0.725851915,0.59,23.03128713,23.87778468,11.686543,26.58478587,8.108740426,32.05033663,"Diego Alonso Saldana, Laurie Starck, Pascal Mougin, Bernard Rousseau, Nicolas Ferrando, and Benoit Creton. Prediction of density and viscosity of biofuel compounds using machine learning methods. Energy & fuels, 26(4):2416-2426, 2012."
2407,dimethyl maleate,COC(=O)/C=C\C(=O)OC,293.1,0.003411805,3.54,0.549003262,1.186230524,0.0,22.38720792,13.22380317,21.02352887,24.83670833,18.49556933,30.21474257,"Diego Alonso Saldana, Laurie Starck, Pascal Mougin, Bernard Rousseau, Nicolas Ferrando, and Benoit Creton. Prediction of density and viscosity of biofuel compounds using machine learning methods. Energy & fuels, 26(4):2416-2426, 2012."
2408,Dimethyl maleate,COC(=O)/C=C\C(=O)OC,293.15,0.003411223,3.54,0.549003262,1.182755428,0.01,22.40728713,13.16683355,20.95025276,24.74434663,18.41491082,30.23640594,"A Dean John et al. Lange's handbook of chemistry. In Universitas Of Tennese Knoxville, Fifthenth Edition, Mc. Graw Hill Inc, New York. Conference, 1999."
2409,dimethyl maleate,COC(=O)/C=C\C(=O)OC,298.1,0.003354579,3.21,0.506505032,1.179002758,0.01,22.43726733,13.10475851,20.86073389,24.6355337,18.3245441,30.66741584,"Diego Alonso Saldana, Laurie Starck, Pascal Mougin, Bernard Rousseau, Nicolas Ferrando, and Benoit Creton. Prediction of density and viscosity of biofuel compounds using machine learning methods. Energy & fuels, 26(4):2416-2426, 2012."
2410,Dimethyl maleate,COC(=O)/C=C\C(=O)OC,298.15,0.003354016,3.21,0.506505032,1.179746725,0.0,22.42961386,13.11356471,20.87594567,24.65311884,18.33877755,30.71778218,"A Dean John et al. Lange's handbook of chemistry. In Universitas Of Tennese Knoxville, Fifthenth Edition, Mc. Graw Hill Inc, New York. Conference, 1999."
2411,methyl isobutyrate,COC(=O)C(C)C,273.43,0.003657243,0.6687,-0.174768677,0.934959826,0.06,22.02109901,7.135525987,18.04519939,19.40488426,10.37451151,30.36770297,"WE Wasburn. International critical tables of numerical data, physics, chemistry and technology. 1st electronic edition. Knovel: Norwich, NY, 2003."
2412,methyl isobutyrate,COC(=O)C(C)C,282.55,0.003539197,0.5914,-0.22811868,0.92840107,0.03,22.07019802,7.052919993,17.87301904,19.21443504,10.2687118,30.46319802,"WE Wasburn. International critical tables of numerical data, physics, chemistry and technology. 1st electronic edition. Knovel: Norwich, NY, 2003."
2413,methyl isobutyrate,COC(=O)C(C)C,291.26,0.003433359,0.5299,-0.275806081,0.910835984,0.05,22.21810891,6.847062318,17.46402105,18.7584848,10.00921551,30.69676238,"WE Wasburn. International critical tables of numerical data, physics, chemistry and technology. 1st electronic edition. Knovel: Norwich, NY, 2003."
2414,methyl isobutyrate,COC(=O)C(C)C,302.13,0.003309834,0.466,-0.331614083,0.902161752,0.15,22.27960396,6.73809226,17.22886389,18.4997993,9.860701968,30.74076238,"WE Wasburn. International critical tables of numerical data, physics, chemistry and technology. 1st electronic edition. Knovel: Norwich, NY, 2003."
2415,Methyl iso butyrate,COC(=O)C(C)C,302.15,0.003309614,0.47,-0.327902142,0.906034679,0.1,22.25131683,6.768837767,17.31044012,18.58691993,9.90819348,30.7389901,"Dabir S Viswanath, Tushar K Ghosh, Dasika HL Prasad, Nidamarty VK Dutt, Kalipatnapu Y Rani, Dabir S Viswanath, Tushar K Ghosh, Dasika HL Prasad, Nidamarty VK Dutt, and Kalipatnapu Y Rani. Correlations and estimation of pure liquid viscosity.Viscosity of Liquids: Theory, Estimation, Experiment, and Data, pages 135-405, 2007."
2416,methyl isobutyrate,COC(=O)C(C)C,308.96,0.003236665,0.4317,-0.364817951,0.891601126,0.14,22.3700198,6.621358638,16.99070619,18.23544633,9.718067563,30.88053465,"WE Wasburn. International critical tables of numerical data, physics, chemistry and technology. 1st electronic edition. Knovel: Norwich, NY, 2003."
2417,Methyl isobutanoate,COC(=O)C(C)C,313.15,0.003193358,0.419,-0.377785977,0.891660645,0.12,22.36320792,6.593094885,16.96899642,18.20495565,9.695376833,30.89774257,"A Dean John et al. Lange's handbook of chemistry. In Universitas Of Tennese Knoxville, Fifthenth Edition, Mc. Graw Hill Inc, New York. Conference, 1999."
2418,methyl isobutyrate,COC(=O)C(C)C,317.81,0.003146534,0.3932,-0.405386491,0.890735627,0.12,22.38087129,6.574718615,16.93334966,18.16509745,9.67433104,30.91908911,"WE Wasburn. International critical tables of numerical data, physics, chemistry and technology. 1st electronic edition. Knovel: Norwich, NY, 2003."
2419,methyl isobutyrate,COC(=O)C(C)C,325.7,0.00307031,0.3631,-0.439973751,0.868231904,0.29,22.56926733,6.35009713,16.42972469,17.61434093,9.370381839,31.15428713,"WE Wasburn. International critical tables of numerical data, physics, chemistry and technology. 1st electronic edition. Knovel: Norwich, NY, 2003."
2420,methyl isobutyrate,COC(=O)C(C)C,335.87,0.002977342,0.3289,-0.482936127,0.864564455,0.22,22.60283168,6.299453211,16.31178684,17.48611028,9.300513026,31.22031683,"WE Wasburn. International critical tables of numerical data, physics, chemistry and technology. 1st electronic edition. Knovel: Norwich, NY, 2003."
2421,methyl isobutyrate,COC(=O)C(C)C,349.37,0.002862295,0.3036,-0.517698233,0.850367666,0.29,22.72526733,6.125744176,15.9672478,17.1021385,9.090236405,31.37716832,"WE Wasburn. International critical tables of numerical data, physics, chemistry and technology. 1st electronic edition. Knovel: Norwich, NY, 2003."
2422,methyl isobutyrate,COC(=O)C(C)C,352.92,0.002833503,0.2813,-0.550830268,0.842873209,0.36,22.80272277,6.054072727,15.79957213,16.91999152,8.992472392,31.44008911,"WE Wasburn. International critical tables of numerical data, physics, chemistry and technology. 1st electronic edition. Knovel: Norwich, NY, 2003."
2423,methyl isobutyrate,COC(=O)C(C)C,361.99,0.002762507,0.2588,-0.587035728,0.835844713,0.34,22.85260396,5.966559463,15.61781706,16.71891637,8.882682725,31.51305941,"WE Wasburn. International critical tables of numerical data, physics, chemistry and technology. 1st electronic edition. Knovel: Norwich, NY, 2003."
2424,Methyl lactate,COC(=O)C(C)O,293.15,0.003411223,2.94,0.46834733,1.107079947,0.01,21.84188119,17.03216694,19.08366944,25.57922114,15.28805041,30.25564356,"Sunghwan Kim, Paul A Thiessen, Tiejun Cheng, Jian Zhang, Asta Gindulyte, and Evan E Bolton. Pug-view: programmatic access to chemical annotations integrated in pubchem. Journal of cheminformatics, 11(1):1-11, 2019."
2425,methyl lactate,COC(=O)C(C)O,298.1,0.003354579,2.92,0.465382851,1.098174322,0.01,21.89894059,16.79406369,18.92768558,25.3044127,15.10030118,30.34780198,"Diego Alonso Saldana, Laurie Starck, Pascal Mougin, Bernard Rousseau, Nicolas Ferrando, and Benoit Creton. Prediction of density and viscosity of biofuel compounds using machine learning methods. Energy & fuels, 26(4):2416-2426, 2012."
2426,methyl lactate,COC(=O)C(C)O,303.1,0.003299241,2.62,0.418301291,1.100474958,0.01,21.88842574,16.7422137,18.96174764,25.29556524,15.06978845,30.22090099,"Diego Alonso Saldana, Laurie Starck, Pascal Mougin, Bernard Rousseau, Nicolas Ferrando, and Benoit Creton. Prediction of density and viscosity of biofuel compounds using machine learning methods. Energy & fuels, 26(4):2416-2426, 2012."
2427,methyl lactate,COC(=O)C(C)O,313.1,0.003193868,1.97,0.294466226,1.082780846,0.03,22.00323762,16.30890707,18.61915307,24.75222269,14.70123946,30.42607921,"Diego Alonso Saldana, Laurie Starck, Pascal Mougin, Bernard Rousseau, Nicolas Ferrando, and Benoit Creton. Prediction of density and viscosity of biofuel compounds using machine learning methods. Energy & fuels, 26(4):2416-2426, 2012."
2428,methyl lactate,COC(=O)C(C)O,323.1,0.003095017,1.56,0.193124598,1.077986307,0.04,22.04133663,16.04451228,18.50806292,24.49479632,14.49108718,30.38562376,"Diego Alonso Saldana, Laurie Starck, Pascal Mougin, Bernard Rousseau, Nicolas Ferrando, and Benoit Creton. Prediction of density and viscosity of biofuel compounds using machine learning methods. Energy & fuels, 26(4):2416-2426, 2012."
2429,methyl lactate,COC(=O)C(C)O,333.1,0.003002101,1.25,0.096910013,1.07036238,0.03,22.09168317,15.76801518,18.35197958,24.1959082,14.27130921,30.51717822,"Diego Alonso Saldana, Laurie Starck, Pascal Mougin, Bernard Rousseau, Nicolas Ferrando, and Benoit Creton. Prediction of density and viscosity of biofuel compounds using machine learning methods. Energy & fuels, 26(4):2416-2426, 2012."
2430,methyl lactate,COC(=O)C(C)O,343.1,0.002914602,1.02,0.008600172,1.062151588,0.04,22.14775248,15.49473481,18.18261655,23.88980663,14.05165546,30.58746535,"Diego Alonso Saldana, Laurie Starck, Pascal Mougin, Bernard Rousseau, Nicolas Ferrando, and Benoit Creton. Prediction of density and viscosity of biofuel compounds using machine learning methods. Energy & fuels, 26(4):2416-2426, 2012."
2431,methyl lactate,COC(=O)C(C)O,353.1,0.002832059,0.84,-0.075720714,1.042617612,0.08,22.28527723,15.00121861,17.81960124,23.29368379,13.65073803,30.81052475,"Diego Alonso Saldana, Laurie Starck, Pascal Mougin, Bernard Rousseau, Nicolas Ferrando, and Benoit Creton. Prediction of density and viscosity of biofuel compounds using machine learning methods. Energy & fuels, 26(4):2416-2426, 2012."
2432,Dimethyl hexahydroterephthalate,COC(=O)C1CCC(C(=O)OC)CC1,293.15,0.003411223,8.0,0.903089987,1.117538512,0.01,21.49176238,7.980202502,19.66939636,21.22674078,19.8778493,27.13526733,"Sunghwan Kim, Paul A Thiessen, Tiejun Cheng, Jian Zhang, Asta Gindulyte, and Evan E Bolton. Pug-view: programmatic access to chemical annotations integrated in pubchem. Journal of cheminformatics, 11(1):1-11, 2019."
2433,Dimethyl hexahydroterephthalate,COC(=O)C1CCC(C(=O)OC)CC1,304.65,0.003282455,3.9,0.591064607,1.10335537,0.01,21.5840099,7.799121825,19.34069899,20.85413197,19.46860579,28.88421782,"Sunghwan Kim, Paul A Thiessen, Tiejun Cheng, Jian Zhang, Asta Gindulyte, and Evan E Bolton. Pug-view: programmatic access to chemical annotations integrated in pubchem. Journal of cheminformatics, 11(1):1-11, 2019."
2434,Dimethyl maleate,COC(=O)C=CC(=O)OC,298.15,0.003354016,3.4,0.531478917,1.169663953,0.01,22.4940198,10.38563921,21.20677157,23.6134472,17.0138864,30.20722772,"Valentin Goussard, Francois Duprat, Jean-Luc Ploix, G erard Dreyfus, Veronique Nardello-Rataj, and Jean-Marie Aubry. A new machine-learning tool for fast estimation of liquid viscosity. application to cosmetic oils. Journal of Chemical Information and Modeling, 60(4):2012-2023, 2020."
2435,Methyl cyanoacetate,COC(=O)CC#N,323.15,0.003094538,3.824,0.582517884,1.056049011,0.05,23.49971287,15.18670367,18.10893042,23.63417024,13.16865954,32.4709802,"A Dean John et al. Lange's handbook of chemistry. In Universitas Of Tennese Knoxville, Fifthenth Edition, Mc. Graw Hill Inc, New York. Conference, 1999."
2436,Methyl cyanoacetate,COC(=O)CC#N,328.15,0.003047387,3.398,0.531223375,1.053408596,0.04,23.53279208,15.10932772,18.04261713,23.53363972,13.10337993,32.55508911,"A Dean John et al. Lange's handbook of chemistry. In Universitas Of Tennese Knoxville, Fifthenth Edition, Mc. Graw Hill Inc, New York. Conference, 1999."
2437,Methyl cyanoacetate,COC(=O)CC#N,338.15,0.002957267,2.687,0.429267666,1.042556437,0.06,23.61240594,14.89386964,17.80417288,23.21252319,12.91187065,32.72020792,"A Dean John et al. Lange's handbook of chemistry. In Universitas Of Tennese Knoxville, Fifthenth Edition, Mc. Graw Hill Inc, New York. Conference, 1999."
2438,dimethylmalonate,COC(=O)CC(=O)OC,273.1,0.003661662,3.7,0.568201724,1.189696817,0.01,22.14570297,11.4822076,20.96288867,23.90165673,15.70558737,30.63827723,"Diego Alonso Saldana, Laurie Starck, Pascal Mougin, Bernard Rousseau, Nicolas Ferrando, and Benoit Creton. Prediction of density and viscosity of biofuel compounds using machine learning methods. Energy & fuels, 26(4):2416-2426, 2012."
2439,dimethylmalonate,COC(=O)CC(=O)OC,298.1,0.003354579,2.0,0.301029996,1.163819111,0.01,22.30267327,11.0561983,20.36919287,23.17646969,15.16612469,30.82488119,"Diego Alonso Saldana, Laurie Starck, Pascal Mougin, Bernard Rousseau, Nicolas Ferrando, and Benoit Creton. Prediction of density and viscosity of biofuel compounds using machine learning methods. Energy & fuels, 26(4):2416-2426, 2012."
2440,methyl acetoacetate,COC(=O)CC(C)=O,293.1,0.003411805,1.7,0.230448921,1.096252629,0.01,22.23705941,12.42279246,19.791419,23.36731581,14.40565866,30.76512871,"Diego Alonso Saldana, Laurie Starck, Pascal Mougin, Bernard Rousseau, Nicolas Ferrando, and Benoit Creton. Prediction of density and viscosity of biofuel compounds using machine learning methods. Energy & fuels, 26(4):2416-2426, 2012."
2441,methyl acetoacetate,COC(=O)CC(C)=O,293.15,0.003411223,1.702,0.230959556,1.095733708,0.01,22.24059406,12.40385767,19.79597033,23.36110752,14.40494935,30.72865347,"WE Wasburn. International critical tables of numerical data, physics, chemistry and technology. 1st electronic edition. Knovel: Norwich, NY, 2003."
2442,methyl acetoacetate,COC(=O)CC(C)=O,298.1,0.003354579,1.57,0.195899652,1.088183721,0.02,22.28766337,12.28067976,19.61298084,23.14067523,14.24928659,30.85371287,"Diego Alonso Saldana, Laurie Starck, Pascal Mougin, Bernard Rousseau, Nicolas Ferrando, and Benoit Creton. Prediction of density and viscosity of biofuel compounds using machine learning methods. Energy & fuels, 26(4):2416-2426, 2012."