Index,Name,CANON_SMILES,Temperature (K),Inverse temperature (1/K),Viscosity (cP),log(Viscosity),MD_density,MD_FV,MD_Rg,MD_SP_E,MD_SP_V,MD_SP,MD_HV,MD_RMSD,Reference
2110,"N,N-Diethylaniline",CCN(CC)c1ccccc1,348.15,0.002872325,0.75,-0.124938737,0.877933656,0.19,22.15010891,4.479530575,16.31168384,16.91586782,12.31731285,30.39512871,"A Dean John et al. Lange's handbook of chemistry. In Universitas Of Tennese Knoxville, Fifthenth Edition, Mc. Graw Hill Inc, New York. Conference, 1999."
2111,diethylaniline,CCN(CC)c1ccccc1,371.15,0.002694328,0.63,-0.200659451,0.861906769,0.28,22.28464356,4.271218646,15.8817917,16.44645859,11.93112635,30.66239604,"WE Wasburn. International critical tables of numerical data, physics, chemistry and technology. 1st electronic edition. Knovel: Norwich, NY, 2003."
2112,ethylbenzylaniline,CCN(Cc1ccccc1)c1ccccc1,328.15,0.003047387,4.77,0.678518379,1.007085697,0.02,21.95323762,5.867579827,17.95011389,18.88501551,18.53720059,29.98159406,"WE Wasburn. International critical tables of numerical data, physics, chemistry and technology. 1st electronic edition. Knovel: Norwich, NY, 2003."
2113,N-ethylmorpholine,CCN1CCOCC1,293.15,0.003411223,1.08,0.033423755,0.944703228,0.07,21.2839901,7.575536022,17.65140372,19.20854068,11.33386541,29.23788119,"Sunghwan Kim, Paul A Thiessen, Tiejun Cheng, Jian Zhang, Asta Gindulyte, and Evan E Bolton. Pug-view: programmatic access to chemical annotations integrated in pubchem. Journal of cheminformatics, 11(1):1-11, 2019."
2114,diethylamine,CCNCC,239.65,0.004172752,0.8236,-0.084283662,0.807469047,0.05,21.10442574,12.20778868,17.2582535,21.13988486,10.15087888,29.2030396,"WE Wasburn. International critical tables of numerical data, physics, chemistry and technology. 1st electronic edition. Knovel: Norwich, NY, 2003."
2115,diethylamine,CCNCC,308.15,0.003245173,0.279,-0.554395797,0.697294182,0.61,22.16384158,8.221269497,14.5705748,16.73061186,7.629618089,30.6029604,"WE Wasburn. International critical tables of numerical data, physics, chemistry and technology. 1st electronic edition. Knovel: Norwich, NY, 2003."
2116,N-ethylaniline,CCNc1ccccc1,283.15,0.003531697,2.979,0.474070503,0.984741221,0.01,21.70157426,8.569753313,19.1077853,20.94187697,13.46171244,29.88140594,"WE Wasburn. International critical tables of numerical data, physics, chemistry and technology. 1st electronic edition. Knovel: Norwich, NY, 2003."
2117,N-ethylaniline,CCNc1ccccc1,313.15,0.003193358,1.434,0.156549151,0.947464815,0.03,21.97990099,7.811547351,18.21643382,19.82087714,12.6319605,30.28329703,"WE Wasburn. International critical tables of numerical data, physics, chemistry and technology. 1st electronic edition. Knovel: Norwich, NY, 2003."
2118,N-ethylaniline,CCNc1ccccc1,333.15,0.003001651,1.013,0.005609445,0.933952343,0.06,22.08543564,7.490603313,17.862081,19.36938493,12.2967262,30.449,"WE Wasburn. International critical tables of numerical data, physics, chemistry and technology. 1st electronic edition. Knovel: Norwich, NY, 2003."
2119,N-ethylaniline,CCNc1ccccc1,353.15,0.002831658,0.766,-0.11577123,0.907969791,0.18,22.29593069,7.045049162,17.24167259,18.62578751,11.76819787,30.73483168,"WE Wasburn. International critical tables of numerical data, physics, chemistry and technology. 1st electronic edition. Knovel: Norwich, NY, 2003."
2120,N-ethylaniline,CCNc1ccccc1,363.15,0.002753683,0.674,-0.171340104,0.897014925,0.18,22.38659406,6.858858061,16.98544715,18.31831451,11.55641343,30.83763366,"WE Wasburn. International critical tables of numerical data, physics, chemistry and technology. 1st electronic edition. Knovel: Norwich, NY, 2003."
2121,ethanol,CCO,288.1,0.003471017,1.28,0.10720997,0.804738537,0.12,21.9390297,21.95172972,14.55374818,26.33826649,10.06406666,30.47464356,"Diego Alonso Saldana, Laurie Starck, Pascal Mougin, Bernard Rousseau, Nicolas Ferrando, and Benoit Creton. Prediction of density and viscosity of biofuel compounds using machine learning methods. Energy & fuels, 26(4):2416-2426, 2012."
2122,Ethanol (anhydrous),CCO,293.15,0.003411223,1.074,0.031004281,0.788536421,0.19,22.08758416,21.55864705,14.24067015,25.83772133,9.904437484,30.68179208,"Sunghwan Kim, Paul A Thiessen, Tiejun Cheng, Jian Zhang, Asta Gindulyte, and Evan E Bolton. Pug-view: programmatic access to chemical annotations integrated in pubchem. Journal of cheminformatics, 11(1):1-11, 2019."
2123,ethanol,CCO,298.1,0.003354579,1.06,0.025305865,0.784999691,0.28,22.11860396,21.37672568,14.18902382,25.65756181,9.826149133,30.65739604,"Diego Alonso Saldana, Laurie Starck, Pascal Mougin, Bernard Rousseau, Nicolas Ferrando, and Benoit Creton. Prediction of density and viscosity of biofuel compounds using machine learning methods. Energy & fuels, 26(4):2416-2426, 2012."
2124,ethanol,CCO,303.1,0.003299241,0.99,-0.004364805,0.782528591,0.18,22.14349505,21.21739672,14.15375593,25.50539865,9.755710549,30.73266337,"Diego Alonso Saldana, Laurie Starck, Pascal Mougin, Bernard Rousseau, Nicolas Ferrando, and Benoit Creton. Prediction of density and viscosity of biofuel compounds using machine learning methods. Energy & fuels, 26(4):2416-2426, 2012."
2125,ethanol,CCO,308.1,0.003245699,0.88,-0.055517328,0.781334959,0.3,22.15931683,21.13504036,14.11755952,25.41679313,9.716047468,30.70022772,"Diego Alonso Saldana, Laurie Starck, Pascal Mougin, Bernard Rousseau, Nicolas Ferrando, and Benoit Creton. Prediction of density and viscosity of biofuel compounds using machine learning methods. Energy & fuels, 26(4):2416-2426, 2012."
2126,ethanol,CCO,318.1,0.003143666,0.75,-0.124938737,0.767943503,0.22,22.28915842,20.65260099,13.91112709,24.90121679,9.522706031,30.93189109,"Diego Alonso Saldana, Laurie Starck, Pascal Mougin, Bernard Rousseau, Nicolas Ferrando, and Benoit Creton. Prediction of density and viscosity of biofuel compounds using machine learning methods. Energy & fuels, 26(4):2416-2426, 2012."
2127,ethanol,CCO,328.1,0.003047851,0.63,-0.200659451,0.750709889,0.41,22.45181188,20.12161629,13.59909598,24.2864345,9.303172884,31.0929703,"Diego Alonso Saldana, Laurie Starck, Pascal Mougin, Bernard Rousseau, Nicolas Ferrando, and Benoit Creton. Prediction of density and viscosity of biofuel compounds using machine learning methods. Energy & fuels, 26(4):2416-2426, 2012."
2128,triethyl aconitate,CCOC(=O)/C=C(\CC(=O)OCC)C(=O)OCC,298.15,0.003354016,11.7,1.068185862,1.127127646,0.01,21.97072277,8.245473412,19.8056682,21.45360982,25.79891538,26.10805941,"WE Wasburn. International critical tables of numerical data, physics, chemistry and technology. 1st electronic edition. Knovel: Norwich, NY, 2003."
2129,diethyl fumarate,CCOC(=O)/C=C/C(=O)OCC,297.85,0.003357395,2.45,0.389166084,1.085490904,0.01,22.23963366,7.815515662,20.36848713,21.81660548,18.63618716,30.39843564,"WE Wasburn. International critical tables of numerical data, physics, chemistry and technology. 1st electronic edition. Knovel: Norwich, NY, 2003."
2130,Ethyl trans-cinnamate,CCOC(=O)/C=C/c1ccccc1,293.15,0.003411223,8.7,0.939519253,1.077045918,0.01,22.152,8.344951279,20.22849392,21.88237905,19.30685034,27.52317822,"A Dean John et al. Lange's handbook of chemistry. In Universitas Of Tennese Knoxville, Fifthenth Edition, Mc. Graw Hill Inc, New York. Conference, 1999."
2131,Diethyl maleate,CCOC(=O)/C=C\C(=O)OCC,293.15,0.003411223,3.57,0.552668216,1.105899971,0.01,22.09918812,10.62831846,20.30495814,22.91850842,20.12814258,29.17928713,"A Dean John et al. Lange's handbook of chemistry. In Universitas Of Tennese Knoxville, Fifthenth Edition, Mc. Graw Hill Inc, New York. Conference, 1999."
2132,diethyl maleate,CCOC(=O)/C=C\C(=O)OCC,297.85,0.003357395,3.01,0.478566496,1.098946449,0.02,22.14369307,10.56144399,20.15942371,22.75856497,19.98760867,30.03714851,"WE Wasburn. International critical tables of numerical data, physics, chemistry and technology. 1st electronic edition. Knovel: Norwich, NY, 2003."
2133,diethyl maleate,CCOC(=O)/C=C\C(=O)OCC,297.9,0.003356831,3.02,0.480006943,1.092430453,0.01,22.19362376,10.47285533,20.02517782,22.59854784,19.83002697,30.18162376,"Diego Alonso Saldana, Laurie Starck, Pascal Mougin, Bernard Rousseau, Nicolas Ferrando, and Benoit Creton. Prediction of density and viscosity of biofuel compounds using machine learning methods. Energy & fuels, 26(4):2416-2426, 2012."
2134,diethyl oxalate,CCOC(=O)C(=O)OCC,273.1,0.003661662,3.26,0.5132176,1.120166608,0.01,22.12515842,9.685940491,20.88165074,23.0187875,17.06485544,30.18491089,"Diego Alonso Saldana, Laurie Starck, Pascal Mougin, Bernard Rousseau, Nicolas Ferrando, and Benoit Creton. Prediction of density and viscosity of biofuel compounds using machine learning methods. Energy & fuels, 26(4):2416-2426, 2012."
2135,diethyl oxalate,CCOC(=O)C(=O)OCC,283.1,0.003532321,2.53,0.403120521,1.112214655,0.01,22.18034653,9.558182846,20.67319114,22.77596385,16.85363741,30.56554455,"Diego Alonso Saldana, Laurie Starck, Pascal Mougin, Bernard Rousseau, Nicolas Ferrando, and Benoit Creton. Prediction of density and viscosity of biofuel compounds using machine learning methods. Energy & fuels, 26(4):2416-2426, 2012."
2136,diethyl oxalate,CCOC(=O)C(=O)OCC,288.1,0.003471017,2.31,0.36361198,1.100682597,0.01,22.25879208,9.421190491,20.41912149,22.48783905,16.62039987,30.82377228,"Diego Alonso Saldana, Laurie Starck, Pascal Mougin, Bernard Rousseau, Nicolas Ferrando, and Benoit Creton. Prediction of density and viscosity of biofuel compounds using machine learning methods. Energy & fuels, 26(4):2416-2426, 2012."
2137,Diethyl oxalate,CCOC(=O)C(=O)OCC,288.15,0.003470415,2.311,0.363799946,1.102361559,0.01,22.24378218,9.440732305,20.45098791,22.52496873,16.64899706,30.68237624,"A Dean John et al. Lange's handbook of chemistry. In Universitas Of Tennese Knoxville, Fifthenth Edition, Mc. Graw Hill Inc, New York. Conference, 1999."
2138,diethyl oxalate,CCOC(=O)C(=O)OCC,293.1,0.003411805,2.02,0.305351369,1.091800213,0.02,22.31322772,9.333947854,20.21658893,22.26740817,16.44527744,30.83889109,"Diego Alonso Saldana, Laurie Starck, Pascal Mougin, Bernard Rousseau, Nicolas Ferrando, and Benoit Creton. Prediction of density and viscosity of biofuel compounds using machine learning methods. Energy & fuels, 26(4):2416-2426, 2012."
2139,diethyl oxalate,CCOC(=O)C(=O)OCC,298.15,0.003354016,1.76,0.245512668,1.09690801,0.02,22.28124752,9.335706223,20.29728291,22.34143767,16.48660876,30.8290099,"WE Wasburn. International critical tables of numerical data, physics, chemistry and technology. 1st electronic edition. Knovel: Norwich, NY, 2003."
2140,diethyl oxalate,CCOC(=O)C(=O)OCC,303.1,0.003299241,1.63,0.212187604,1.085388649,0.02,22.35655446,9.207895857,20.04207012,22.05615386,16.25751004,30.98328713,"Diego Alonso Saldana, Laurie Starck, Pascal Mougin, Bernard Rousseau, Nicolas Ferrando, and Benoit Creton. Prediction of density and viscosity of biofuel compounds using machine learning methods. Energy & fuels, 26(4):2416-2426, 2012."
2141,Diethyl oxalate,CCOC(=O)C(=O)OCC,303.15,0.003298697,1.618,0.208978517,1.080722169,0.03,22.38877228,9.161286559,19.94480398,21.94833553,16.171904,31.01933663,"A Dean John et al. Lange's handbook of chemistry. In Universitas Of Tennese Knoxville, Fifthenth Edition, Mc. Graw Hill Inc, New York. Conference, 1999."
2142,diethyl oxalate,CCOC(=O)C(=O)OCC,313.1,0.003193868,1.38,0.139879086,1.078981995,0.03,22.40510891,9.097069713,19.86330751,21.84747646,16.07377766,31.00977228,"Diego Alonso Saldana, Laurie Starck, Pascal Mougin, Bernard Rousseau, Nicolas Ferrando, and Benoit Creton. Prediction of density and viscosity of biofuel compounds using machine learning methods. Energy & fuels, 26(4):2416-2426, 2012."
2143,diethyl oxalate,CCOC(=O)C(=O)OCC,333.1,0.003002101,1.02,0.008600172,1.061722218,0.08,22.52325743,8.859447078,19.43152506,21.35601547,15.66621445,31.14937624,"Diego Alonso Saldana, Laurie Starck, Pascal Mougin, Bernard Rousseau, Nicolas Ferrando, and Benoit Creton. Prediction of density and viscosity of biofuel compounds using machine learning methods. Energy & fuels, 26(4):2416-2426, 2012."
2144,diethyl oxalate,CCOC(=O)C(=O)OCC,353.1,0.002832059,0.77,-0.113509275,1.023660156,0.12,22.80010891,8.463988997,18.58806444,20.42450629,14.93589469,31.46217822,"Diego Alonso Saldana, Laurie Starck, Pascal Mougin, Bernard Rousseau, Nicolas Ferrando, and Benoit Creton. Prediction of density and viscosity of biofuel compounds using machine learning methods. Energy & fuels, 26(4):2416-2426, 2012."
2145,diethyl oxalate,CCOC(=O)C(=O)OCC,373.1,0.002680247,0.61,-0.214670165,1.014792306,0.13,22.87286139,8.281119493,18.33988165,20.12295129,14.67913405,31.57542574,"Diego Alonso Saldana, Laurie Starck, Pascal Mougin, Bernard Rousseau, Nicolas Ferrando, and Benoit Creton. Prediction of density and viscosity of biofuel compounds using machine learning methods. Energy & fuels, 26(4):2416-2426, 2012."
2146,diethyl oxalate,CCOC(=O)C(=O)OCC,393.1,0.002543882,0.5,-0.301029996,0.995063386,0.14,23.0149703,8.037778321,17.87502233,19.5991633,14.26488148,31.81113861,"Diego Alonso Saldana, Laurie Starck, Pascal Mougin, Bernard Rousseau, Nicolas Ferrando, and Benoit Creton. Prediction of density and viscosity of biofuel compounds using machine learning methods. Energy & fuels, 26(4):2416-2426, 2012."
2147,diethyl dimethylmalonate,CCOC(=O)C(C)(C)C(=O)OCC,298.15,0.003354016,1.95,0.290034611,1.025251064,0.05,21.90562376,6.941174511,18.16820408,19.44913752,17.19036893,30.12524752,"WE Wasburn. International critical tables of numerical data, physics, chemistry and technology. 1st electronic edition. Knovel: Norwich, NY, 2003."
2148,ethyl dimethylacetoacetate,CCOC(=O)C(C)(C)C(C)=O,298.15,0.003354016,1.6,0.204119983,1.006032544,0.03,21.85380198,8.585960466,18.18980731,20.11448176,15.79841949,30.02514851,"WE Wasburn. International critical tables of numerical data, physics, chemistry and technology. 1st electronic edition. Knovel: Norwich, NY, 2003."
2149,ethyl isobutyrate,CCOC(=O)C(C)C,293.15,0.003411223,0.588,-0.230622674,0.897262684,0.07,22.06627723,5.762499802,17.44605865,18.37328295,11.02780745,30.39493069,"WE Wasburn. International critical tables of numerical data, physics, chemistry and technology. 1st electronic edition. Knovel: Norwich, NY, 2003."
2150,ethyl a-methylbutyrate,CCOC(=O)C(C)CC,298.15,0.003354016,0.675,-0.170696227,0.884236916,0.08,21.9929703,5.135473067,17.01572927,17.77402418,11.70927951,30.34978218,"WE Wasburn. International critical tables of numerical data, physics, chemistry and technology. 1st electronic edition. Knovel: Norwich, NY, 2003."
2151,ethyl lactate,CCOC(=O)C(C)O,293.1,0.003411805,1.26,0.100370545,1.055131887,0.01,21.78841584,14.82758926,18.78436707,23.93170971,15.90814598,30.04133663,"Diego Alonso Saldana, Laurie Starck, Pascal Mougin, Bernard Rousseau, Nicolas Ferrando, and Benoit Creton. Prediction of density and viscosity of biofuel compounds using machine learning methods. Energy & fuels, 26(4):2416-2426, 2012."
2152,ethyl lactate,CCOC(=O)C(C)O,313.1,0.003193868,0.9,-0.045757491,1.028699441,0.06,21.96527723,14.05889389,18.25395751,23.04074505,15.19306142,30.3920297,"Diego Alonso Saldana, Laurie Starck, Pascal Mougin, Bernard Rousseau, Nicolas Ferrando, and Benoit Creton. Prediction of density and viscosity of biofuel compounds using machine learning methods. Energy & fuels, 26(4):2416-2426, 2012."
2153,ethyl diethylacetoacetate,CCOC(=O)C(CC)(CC)C(C)=O,293.15,0.003411223,3.502,0.544316142,0.979089793,0.05,21.69990099,7.154765479,17.39322015,18.80746742,16.66475237,29.65138614,"WE Wasburn. International critical tables of numerical data, physics, chemistry and technology. 1st electronic edition. Knovel: Norwich, NY, 2003."
2154,ethyl ethylacetoacetate,CCOC(=O)C(CC)C(C)=O,298.15,0.003354016,1.69,0.227886705,1.000395432,0.04,21.89818812,9.245072308,18.29747855,20.50060127,16.47681485,30.20430693,"WE Wasburn. International critical tables of numerical data, physics, chemistry and technology. 1st electronic edition. Knovel: Norwich, NY, 2003."
2155,ethyl trichloroacetate,CCOC(=O)C(Cl)(Cl)Cl,298.15,0.003354016,0.433510878,-0.363,1.449083327,0.04,25.03164356,5.565845309,19.48124485,20.26083968,13.55418247,34.5580396,"Gregory W Kau man and Peter C Jurs. Prediction of surface tension, viscosity, and thermal conductivity for common organic solvents using quantitative structure- property relationships. Journal of chemical information and computer sciences, 41(2):408-418, 2001."
2156,"diethyl cyclopropane 1,1-dicarboxylate",CCOC(=O)C1(C(=O)OCC)CC1,298.15,0.003354016,2.36,0.372912003,1.065839616,0.02,22.08571287,7.414269278,18.89747988,20.30010956,17.79970256,30.28809901,"WE Wasburn. International critical tables of numerical data, physics, chemistry and technology. 1st electronic edition. Knovel: Norwich, NY, 2003."
2157,"diethylcyclobutane-1,1-dicarboxylate",CCOC(=O)C1(C(=O)OCC)CCC1,298.15,0.003354016,2.61,0.416640507,1.058561419,0.02,21.88811881,7.36555763,18.57667118,19.98372653,18.64692804,29.05775248,"WE Wasburn. International critical tables of numerical data, physics, chemistry and technology. 1st electronic edition. Knovel: Norwich, NY, 2003."
2158,ethyl cyclobutanecarboxylate,CCOC(=O)C1CCC1,298.15,0.003354016,0.996,-0.001740662,0.954646741,0.07,21.98094059,5.758007211,18.1576345,19.04888676,12.23629936,30.35813861,"WE Wasburn. International critical tables of numerical data, physics, chemistry and technology. 1st electronic edition. Knovel: Norwich, NY, 2003."
2159,ethyl cyclohexanecarboxylate,CCOC(=O)C1CCCCC1,298.15,0.003354016,1.79,0.252853031,0.957212209,0.05,21.58933663,4.700267582,18.02208639,18.62513911,14.12410402,29.69911881,"WE Wasburn. International critical tables of numerical data, physics, chemistry and technology. 1st electronic edition. Knovel: Norwich, NY, 2003."
2160,Diethyl maleate,CCOC(=O)C=CC(=O)OCC,298.15,0.003354016,2.9,0.462397998,1.084938896,0.03,22.2439901,7.823036262,20.34631062,21.79860047,18.61621606,30.04861386,"Valentin Goussard, Francois Duprat, Jean-Luc Ploix, G erard Dreyfus, Veronique Nardello-Rataj, and Jean-Marie Aubry. A new machine-learning tool for fast estimation of liquid viscosity. application to cosmetic oils. Journal of Chemical Information and Modeling, 60(4):2012-2023, 2020."
2161,ethyl propionate,CCOC(=O)CC,273.54,0.003655772,0.689,-0.161780778,0.929017927,0.03,22.06768317,6.80228106,18.27085149,19.49613961,10.5308849,30.49970297,"WE Wasburn. International critical tables of numerical data, physics, chemistry and technology. 1st electronic edition. Knovel: Norwich, NY, 2003."
2162,ethyl propionate,CCOC(=O)CC,283.24,0.003530575,0.6037,-0.219178824,0.920729572,0.06,22.13036634,6.695132219,18.05371355,19.25532847,10.39264888,30.58794059,"WE Wasburn. International critical tables of numerical data, physics, chemistry and technology. 1st electronic edition. Knovel: Norwich, NY, 2003."
2163,Ethyl propanoate,CCOC(=O)CC,288.15,0.003470415,0.564,-0.248720896,0.91572751,0.06,22.1740099,6.637272823,17.9186096,19.10850228,10.30594968,30.63663366,"A Dean John et al. Lange's handbook of chemistry. In Universitas Of Tennese Knoxville, Fifthenth Edition, Mc. Graw Hill Inc, New York. Conference, 1999."
2164,ethyl propionate,CCOC(=O)CC,293.23,0.003410292,0.531,-0.274905479,0.905305655,0.07,22.26311881,6.532858054,17.6733628,18.84228682,10.15569715,30.79537624,"WE Wasburn. International critical tables of numerical data, physics, chemistry and technology. 1st electronic edition. Knovel: Norwich, NY, 2003."
2165,ethyl propionate,CCOC(=O)CC,302.89,0.003301529,0.4735,-0.324680017,0.897786168,0.13,22.32174257,6.435907861,17.46314978,18.61148967,10.0200209,30.91878218,"WE Wasburn. International critical tables of numerical data, physics, chemistry and technology. 1st electronic edition. Knovel: Norwich, NY, 2003."