Index,Name,CANON_SMILES,Temperature (K),Inverse temperature (1/K),Viscosity (cP),log(Viscosity),MD_density,MD_FV,MD_Rg,MD_SP_E,MD_SP_V,MD_SP,MD_HV,MD_RMSD,Reference
327,3-iodopropylene,C=CCI,282.48,0.003540074,0.825,-0.083546051,1.96023095,0.06,25.10533663,6.582243119,18.62363969,19.75271616,8.552331424,34.79393069,"WE Wasburn. International critical tables of numerical data, physics, chemistry and technology. 1st electronic edition. Knovel: Norwich, NY, 2003."
328,3-iodopropylene,C=CCI,289.92,0.003449227,0.754,-0.122628654,1.943961397,0.07,25.16828713,6.508621768,18.43238972,19.54783667,8.467712475,34.91968317,"WE Wasburn. International critical tables of numerical data, physics, chemistry and technology. 1st electronic edition. Knovel: Norwich, NY, 2003."
329,3-iodopropylene,C=CCI,299.27,0.003341464,0.679,-0.168130226,1.925175015,0.07,25.251,6.388770733,18.20951703,19.29781494,8.360770155,34.9969505,"WE Wasburn. International critical tables of numerical data, physics, chemistry and technology. 1st electronic edition. Knovel: Norwich, NY, 2003."
330,3-iodopropylene,C=CCI,308.92,0.003237084,0.614,-0.211831629,1.902360294,0.14,25.35018812,6.286514597,17.94010006,19.00975495,8.240207531,35.15294059,"WE Wasburn. International critical tables of numerical data, physics, chemistry and technology. 1st electronic edition. Knovel: Norwich, NY, 2003."
331,3-iodopropylene,C=CCI,317.33,0.003151294,0.565,-0.247951552,1.893564737,0.12,25.39224752,6.212405316,17.81792679,18.86997113,8.180076966,35.24016832,"WE Wasburn. International critical tables of numerical data, physics, chemistry and technology. 1st electronic edition. Knovel: Norwich, NY, 2003."
332,3-iodopropylene,C=CCI,328.31,0.003045902,0.51,-0.292429824,1.852276505,0.25,25.57965347,6.032286466,17.36402773,18.38209487,7.976258051,35.46565347,"WE Wasburn. International critical tables of numerical data, physics, chemistry and technology. 1st electronic edition. Knovel: Norwich, NY, 2003."
333,3-iodopropylene,C=CCI,336.59,0.002970974,0.476,-0.322393047,1.830010744,0.27,25.68344554,5.923978153,17.11344155,18.1099039,7.863923364,35.60448515,"WE Wasburn. International critical tables of numerical data, physics, chemistry and technology. 1st electronic edition. Knovel: Norwich, NY, 2003."
334,3-iodopropylene,C=CCI,344.29,0.002904528,0.443,-0.353596274,1.827263695,0.34,25.68579208,5.879068285,17.06269091,18.04725881,7.840280823,35.56278218,"WE Wasburn. International critical tables of numerical data, physics, chemistry and technology. 1st electronic edition. Knovel: Norwich, NY, 2003."
335,3-iodopropylene,C=CCI,354.44,0.002821352,0.41,-0.387216143,1.790603163,0.37,25.86406931,5.724090188,16.66315377,17.61899549,7.664487847,35.9009901,"WE Wasburn. International critical tables of numerical data, physics, chemistry and technology. 1st electronic edition. Knovel: Norwich, NY, 2003."
336,3-iodopropylene,C=CCI,365.01,0.002739651,0.375,-0.425968732,1.771057735,0.44,25.96947525,5.624850262,16.43609497,17.37202758,7.566417354,36.01637624,"WE Wasburn. International critical tables of numerical data, physics, chemistry and technology. 1st electronic edition. Knovel: Norwich, NY, 2003."
337,3-iodopropylene,C=CCI,371.6,0.002691066,0.358,-0.446116973,1.7633976,0.38,26.00706931,5.576736537,16.33510752,17.26092433,7.521630449,36.04363366,"WE Wasburn. International critical tables of numerical data, physics, chemistry and technology. 1st electronic edition. Knovel: Norwich, NY, 2003."
338,allylamine,C=CCN,298.15,0.003354016,0.3745,-0.426548178,0.793457909,0.17,22.15437624,15.39166014,14.97995751,21.47845012,8.52653906,30.66524752,"WE Wasburn. International critical tables of numerical data, physics, chemistry and technology. 1st electronic edition. Knovel: Norwich, NY, 2003."
339,allylaniline,C=CCNc1ccccc1,328.15,0.003047387,1.41,0.149219113,0.947926864,0.03,22.31731683,7.259964511,17.93170773,19.34584634,13.22084229,30.7580495,"WE Wasburn. International critical tables of numerical data, physics, chemistry and technology. 1st electronic edition. Knovel: Norwich, NY, 2003."
340,allylaniline,C=CCNc1ccccc1,403.15,0.002480466,0.506,-0.295849483,0.873532406,0.32,22.93313861,5.949487159,16.16108264,17.22181628,11.60981129,31.61818812,"WE Wasburn. International critical tables of numerical data, physics, chemistry and technology. 1st electronic edition. Knovel: Norwich, NY, 2003."
341,allyl alcohol,C=CCO,280.56,0.0035643,1.81,0.257678575,0.873766187,0.08,22.261,20.13956056,16.04729842,25.75126612,11.09259878,30.87189109,"WE Wasburn. International critical tables of numerical data, physics, chemistry and technology. 1st electronic edition. Knovel: Norwich, NY, 2003."
342,allyl alcohol,C=CCO,280.6,0.003563792,1.81,0.257678575,0.874525161,0.07,22.25870297,20.15800912,16.04108534,25.76187776,11.09221485,30.79660396,"Diego Alonso Saldana, Laurie Starck, Pascal Mougin, Bernard Rousseau, Nicolas Ferrando, and Benoit Creton. Prediction of density and viscosity of biofuel compounds using machine learning methods. Energy & fuels, 26(4):2416-2426, 2012."
343,allyl alcohol,C=CCO,288.1,0.003471017,1.49,0.173186268,0.866175254,0.08,22.3260198,19.88164773,15.87195247,25.44048568,10.94495038,30.95741584,"Diego Alonso Saldana, Laurie Starck, Pascal Mougin, Bernard Rousseau, Nicolas Ferrando, and Benoit Creton. Prediction of density and viscosity of biofuel compounds using machine learning methods. Energy & fuels, 26(4):2416-2426, 2012."
344,allyl alcohol,C=CCO,288.46,0.003466685,1.508,0.178401342,0.871720355,0.07,22.28690099,19.98771866,15.98322375,25.59271493,11.00340898,30.93118812,"WE Wasburn. International critical tables of numerical data, physics, chemistry and technology. 1st electronic edition. Knovel: Norwich, NY, 2003."
345,allyl alcohol,C=CCO,288.5,0.003466205,1.51,0.178976947,0.874526285,0.07,22.26056436,20.01498009,16.04865163,25.65494746,11.02062594,30.90770297,"Diego Alonso Saldana, Laurie Starck, Pascal Mougin, Bernard Rousseau, Nicolas Ferrando, and Benoit Creton. Prediction of density and viscosity of biofuel compounds using machine learning methods. Energy & fuels, 26(4):2416-2426, 2012."
346,allyl alcohol,C=CCO,293.1,0.003411805,1.37,0.136720567,0.865945572,0.06,22.32681188,19.77985153,15.87454849,25.36267459,10.89426388,30.98881188,"Diego Alonso Saldana, Laurie Starck, Pascal Mougin, Bernard Rousseau, Nicolas Ferrando, and Benoit Creton. Prediction of density and viscosity of biofuel compounds using machine learning methods. Energy & fuels, 26(4):2416-2426, 2012."
347,2-Propen-1-ol (allyl alcohol),C=CCO,293.15,0.003411223,1.363,0.134495856,0.870940029,0.07,22.29085149,19.84514545,15.9870754,25.48403585,10.93360115,30.88868317,"A Dean John et al. Lange's handbook of chemistry. In Universitas Of Tennese Knoxville, Fifthenth Edition, Mc. Graw Hill Inc, New York. Conference, 1999."
348,allyl alcohol,C=CCO,295.96,0.003378835,1.283,0.108226656,0.860278427,0.12,22.37816832,19.61658581,15.78667399,25.18022631,10.81909548,31.05271287,"WE Wasburn. International critical tables of numerical data, physics, chemistry and technology. 1st electronic edition. Knovel: Norwich, NY, 2003."
349,allyl alcohol,C=CCO,296.0,0.003378378,1.28,0.10720997,0.857889016,0.08,22.40638614,19.58609704,15.73787588,25.12594876,10.80349247,31.05284158,"Diego Alonso Saldana, Laurie Starck, Pascal Mougin, Bernard Rousseau, Nicolas Ferrando, and Benoit Creton. Prediction of density and viscosity of biofuel compounds using machine learning methods. Energy & fuels, 26(4):2416-2426, 2012."
350,allyl alcohol,C=CCO,298.1,0.003354579,1.22,0.086359831,0.857743751,0.09,22.406,19.54345964,15.72055857,25.08184314,10.77356704,31.1229703,"Diego Alonso Saldana, Laurie Starck, Pascal Mougin, Bernard Rousseau, Nicolas Ferrando, and Benoit Creton. Prediction of density and viscosity of biofuel compounds using machine learning methods. Energy & fuels, 26(4):2416-2426, 2012."
351,allyl alcohol,C=CCO,303.1,0.003299241,1.07,0.029383778,0.855547525,0.12,22.41868317,19.38795577,15.69625657,24.94573457,10.69914504,31.05658416,"Diego Alonso Saldana, Laurie Starck, Pascal Mougin, Bernard Rousseau, Nicolas Ferrando, and Benoit Creton. Prediction of density and viscosity of biofuel compounds using machine learning methods. Energy & fuels, 26(4):2416-2426, 2012."
352,2-Propen-1-ol (allyl alcohol),C=CCO,313.15,0.003193358,0.914,-0.039053804,0.839592361,0.22,22.56380198,18.90250258,15.40998052,24.38833047,10.45636066,31.29193069,"A Dean John et al. Lange's handbook of chemistry. In Universitas Of Tennese Knoxville, Fifthenth Edition, Mc. Graw Hill Inc, New York. Conference, 1999."
353,allyl alcohol,C=CCO,319.5,0.00312989,0.81,-0.091514981,0.834369306,0.16,22.61383168,18.68456686,15.30448172,24.15278346,10.34027297,31.29315842,"Diego Alonso Saldana, Laurie Starck, Pascal Mougin, Bernard Rousseau, Nicolas Ferrando, and Benoit Creton. Prediction of density and viscosity of biofuel compounds using machine learning methods. Energy & fuels, 26(4):2416-2426, 2012."
354,allyl alcohol,C=CCO,319.51,0.003129792,0.811,-0.090979146,0.834902063,0.16,22.60253465,18.70100923,15.30803139,24.16778077,10.34620199,31.3099505,"WE Wasburn. International critical tables of numerical data, physics, chemistry and technology. 1st electronic edition. Knovel: Norwich, NY, 2003."
355,allyl alcohol,C=CCO,327.25,0.003055768,0.708,-0.149966742,0.827697776,0.23,22.66591089,18.40239269,15.18203852,23.85703674,10.19582646,31.40740594,"WE Wasburn. International critical tables of numerical data, physics, chemistry and technology. 1st electronic edition. Knovel: Norwich, NY, 2003."
356,allyl alcohol,C=CCO,327.3,0.003055301,0.71,-0.148741651,0.819190345,0.22,22.75656436,18.23460025,15.01885432,23.62390112,10.10748208,31.46834653,"Diego Alonso Saldana, Laurie Starck, Pascal Mougin, Bernard Rousseau, Nicolas Ferrando, and Benoit Creton. Prediction of density and viscosity of biofuel compounds using machine learning methods. Energy & fuels, 26(4):2416-2426, 2012."
357,allyl alcohol,C=CCO,333.9,0.002994909,0.63,-0.200659451,0.81998435,0.25,22.74243564,18.08415211,15.04718672,23.52604709,10.03332037,31.53558416,"Diego Alonso Saldana, Laurie Starck, Pascal Mougin, Bernard Rousseau, Nicolas Ferrando, and Benoit Creton. Prediction of density and viscosity of biofuel compounds using machine learning methods. Energy & fuels, 26(4):2416-2426, 2012."
358,allyl alcohol,C=CCO,333.92,0.002994729,0.633,-0.19859629,0.81444983,0.36,22.78760396,18.01318341,14.92993763,23.39651714,9.993441191,31.57562376,"WE Wasburn. International critical tables of numerical data, physics, chemistry and technology. 1st electronic edition. Knovel: Norwich, NY, 2003."
359,allyl alcohol,C=CCO,342.0,0.002923977,0.56,-0.251811973,0.808051447,0.34,22.84980198,17.70334301,14.83168662,23.09551484,9.842972575,31.65191089,"Diego Alonso Saldana, Laurie Starck, Pascal Mougin, Bernard Rousseau, Nicolas Ferrando, and Benoit Creton. Prediction of density and viscosity of biofuel compounds using machine learning methods. Energy & fuels, 26(4):2416-2426, 2012."
360,allyl alcohol,C=CCO,342.01,0.002923891,0.557,-0.254144805,0.805961037,0.34,22.87821782,17.68807158,14.77554844,23.04785491,9.828934141,31.68064356,"WE Wasburn. International critical tables of numerical data, physics, chemistry and technology. 1st electronic edition. Knovel: Norwich, NY, 2003."
361,Allyl alcohol,C=CCO,343.15,0.002914177,0.553,-0.257274869,0.808342252,0.29,22.85273267,17.68298974,14.8384988,23.08434192,9.833125808,31.71559406,"A Dean John et al. Lange's handbook of chemistry. In Universitas Of Tennese Knoxville, Fifthenth Edition, Mc. Graw Hill Inc, New York. Conference, 1999."
362,allyl alcohol,C=CCO,349.96,0.002857469,0.492,-0.308034897,0.792493979,0.41,23.0020396,17.2600846,14.54788476,22.57370955,9.621287265,31.8259802,"WE Wasburn. International critical tables of numerical data, physics, chemistry and technology. 1st electronic edition. Knovel: Norwich, NY, 2003."
363,allyl alcohol,C=CCO,350.0,0.002857143,0.49,-0.30980392,0.804181513,0.27,22.88854455,17.44014372,14.76767632,22.85312117,9.71071521,31.68037624,"Diego Alonso Saldana, Laurie Starck, Pascal Mougin, Bernard Rousseau, Nicolas Ferrando, and Benoit Creton. Prediction of density and viscosity of biofuel compounds using machine learning methods. Energy & fuels, 26(4):2416-2426, 2012."
364,allyl alcohol,C=CCO,357.6,0.002796421,0.44,-0.356547324,0.788803117,0.37,23.02837624,16.99903264,14.48795866,22.3357876,9.490204476,31.95471287,"Diego Alonso Saldana, Laurie Starck, Pascal Mougin, Bernard Rousseau, Nicolas Ferrando, and Benoit Creton. Prediction of density and viscosity of biofuel compounds using machine learning methods. Energy & fuels, 26(4):2416-2426, 2012."
365,allyl alcohol,C=CCO,357.65,0.00279603,0.44,-0.356547324,0.789962338,0.52,23.0379802,17.02789573,14.51347576,22.37431802,9.507675268,31.88840594,"WE Wasburn. International critical tables of numerical data, physics, chemistry and technology. 1st electronic edition. Knovel: Norwich, NY, 2003."
366,allyl alcohol,C=CCO,365.4,0.002736727,0.39,-0.408935393,0.776704249,0.57,23.16245545,16.6001034,14.26364099,21.88694081,9.287739805,32.0960198,"Diego Alonso Saldana, Laurie Starck, Pascal Mougin, Bernard Rousseau, Nicolas Ferrando, and Benoit Creton. Prediction of density and viscosity of biofuel compounds using machine learning methods. Energy & fuels, 26(4):2416-2426, 2012."
367,allyl alcohol,C=CCO,365.41,0.002736652,0.394,-0.404503778,0.777440936,0.53,23.13909901,16.62481507,14.28921493,21.92234734,9.307317416,32.1550396,"WE Wasburn. International critical tables of numerical data, physics, chemistry and technology. 1st electronic edition. Knovel: Norwich, NY, 2003."
368,allyl alcohol,C=CCO,368.39,0.002714515,0.379,-0.42136079,0.78442722,0.5,23.08171287,16.66909749,14.413039,22.03676384,9.325848588,32.00151485,"WE Wasburn. International critical tables of numerical data, physics, chemistry and technology. 1st electronic edition. Knovel: Norwich, NY, 2003."
369,allyl alcohol,C=CCO,368.4,0.002714441,0.38,-0.420216403,0.774107178,0.66,23.18172277,16.46610023,14.22814297,21.76221282,9.224801776,32.15332673,"Diego Alonso Saldana, Laurie Starck, Pascal Mougin, Bernard Rousseau, Nicolas Ferrando, and Benoit Creton. Prediction of density and viscosity of biofuel compounds using machine learning methods. Energy & fuels, 26(4):2416-2426, 2012."
370,diallyl maleate,C=CCOC(=O)/C=C\C(=O)OCC=C,293.1,0.003411805,4.5,0.653212514,1.115512183,0.0,22.40653465,10.62015915,20.22348641,22.84256892,22.51699119,29.67715842,"Diego Alonso Saldana, Laurie Starck, Pascal Mougin, Bernard Rousseau, Nicolas Ferrando, and Benoit Creton. Prediction of density and viscosity of biofuel compounds using machine learning methods. Energy & fuels, 26(4):2416-2426, 2012."
371,Allyl chloroformate,C=CCOC(=O)Cl,293.15,0.003411223,0.71,-0.148741651,1.183995631,0.02,24.155,7.002307065,19.51640684,20.73468326,11.04336006,33.51130693,"Sunghwan Kim, Paul A Thiessen, Tiejun Cheng, Jian Zhang, Asta Gindulyte, and Evan E Bolton. Pug-view: programmatic access to chemical annotations integrated in pubchem. Journal of cheminformatics, 11(1):1-11, 2019."
372,Diallyl phthalate,C=CCOC(=O)c1ccccc1C(=O)OCC=C,293.15,0.003411223,13.0,1.113943352,1.144849619,0.01,22.34964356,8.367336372,19.74304304,21.44309754,24.22179749,27.24980198,"Sunghwan Kim, Paul A Thiessen, Tiejun Cheng, Jian Zhang, Asta Gindulyte, and Evan E Bolton. Pug-view: programmatic access to chemical annotations integrated in pubchem. Journal of cheminformatics, 11(1):1-11, 2019."
373,"Acetic acid, allyl ester",C=CCOC(C)=O,293.15,0.003411223,0.52,-0.283996656,0.956815563,0.05,22.63306931,7.823673623,18.10819438,19.72618896,10.31394548,31.29356436,"Sunghwan Kim, Paul A Thiessen, Tiejun Cheng, Jian Zhang, Asta Gindulyte, and Evan E Bolton. Pug-view: programmatic access to chemical annotations integrated in pubchem. Journal of cheminformatics, 11(1):1-11, 2019."
374,Allyl acetate,C=CCOC(C)=O,298.15,0.003354016,0.46,-0.337242168,0.944842281,0.08,22.73323762,7.698036102,17.84126591,19.43131502,10.1547879,31.41565347,"Valentin Goussard, Francois Duprat, Jean-Luc Ploix, G erard Dreyfus, Veronique Nardello-Rataj, and Jean-Marie Aubry. A new machine-learning tool for fast estimation of liquid viscosity. application to cosmetic oils. Journal of Chemical Information and Modeling, 60(4):2012-2023, 2020."
375,propylene glycol monoallyl ether,C=CCOCC(C)O,298.1,0.003354579,2.43,0.385606274,0.913689696,0.09,21.936,12.3015011,16.72466819,20.76227156,13.69092522,30.36388119,"Diego Alonso Saldana, Laurie Starck, Pascal Mougin, Bernard Rousseau, Nicolas Ferrando, and Benoit Creton. Prediction of density and viscosity of biofuel compounds using machine learning methods. Energy & fuels, 26(4):2416-2426, 2012."
376,allyl thiocyanate,C=CCSC#N,298.15,0.003354016,0.673,-0.171984936,0.979837369,0.07,24.82334653,8.776585582,17.73461294,19.78756736,10.06247196,34.34556436,"WE Wasburn. International critical tables of numerical data, physics, chemistry and technology. 1st electronic edition. Knovel: Norwich, NY, 2003."
377,allyl thiocyanate,C=CCSC#N,323.15,0.003094538,0.541,-0.266802735,0.958366114,0.16,25.00381188,8.482702846,17.22775484,19.20301982,9.760714766,34.69710891,"WE Wasburn. International critical tables of numerical data, physics, chemistry and technology. 1st electronic edition. Knovel: Norwich, NY, 2003."
378,allyl thiocyanate,C=CCSC#N,353.15,0.002831658,0.427,-0.369572125,0.921890105,0.3,25.33661386,8.07580684,16.42626569,18.30420305,9.31452012,35.05605941,"WE Wasburn. International critical tables of numerical data, physics, chemistry and technology. 1st electronic edition. Knovel: Norwich, NY, 2003."
379,allyl thiocyanate,C=CCSC#N,373.15,0.002679887,0.316,-0.500312917,0.897503869,0.44,25.55612871,7.80571559,15.89445433,17.70778244,9.021150154,35.42279208,"WE Wasburn. International critical tables of numerical data, physics, chemistry and technology. 1st electronic edition. Knovel: Norwich, NY, 2003."
380,allyl thiocyanate,C=CCSC#N,398.15,0.002511616,0.263,-0.580044252,0.874203763,0.63,25.78488119,7.546756673,15.37259644,17.1252716,8.741469792,35.74411881,"WE Wasburn. International critical tables of numerical data, physics, chemistry and technology. 1st electronic edition. Knovel: Norwich, NY, 2003."
381,Eugenol,C=CCc1ccc(O)c(OC)c1,293.15,0.003411223,7.817,0.893040112,1.060951504,0.01,22.05819802,9.188613394,18.80371129,20.92899718,16.78552967,30.36717822,"Sunghwan Kim, Paul A Thiessen, Tiejun Cheng, Jian Zhang, Asta Gindulyte, and Evan E Bolton. Pug-view: programmatic access to chemical annotations integrated in pubchem. Journal of cheminformatics, 11(1):1-11, 2019."
382,eugenol,C=CCc1ccc(O)c(OC)c1,298.15,0.003354016,6.96,0.84260924,1.051173561,0.02,22.12518812,8.998550253,18.60329806,20.66562989,16.53715322,30.63408911,"WE Wasburn. International critical tables of numerical data, physics, chemistry and technology. 1st electronic edition. Knovel: Norwich, NY, 2003."
383,safrol,C=CCc1ccc2c(c1)OCO2,298.15,0.003354016,2.3,0.361727836,1.113041674,0.02,22.24379208,7.377712934,19.50011369,20.84931319,15.73156609,30.63039604,"WE Wasburn. International critical tables of numerical data, physics, chemistry and technology. 1st electronic edition. Knovel: Norwich, NY, 2003."
384,Vinyl chloride,C=CCl,253.15,0.003950227,0.28,-0.552841969,1.006812084,0.16,25.80734653,8.89975921,16.51076487,18.75668895,5.722707641,35.87824752,"Sunghwan Kim, Paul A Thiessen, Tiejun Cheng, Jian Zhang, Asta Gindulyte, and Evan E Bolton. Pug-view: programmatic access to chemical annotations integrated in pubchem. Journal of cheminformatics, 11(1):1-11, 2019."