Index,Name,CANON_SMILES,Temperature (K),Inverse temperature (1/K),Viscosity (cP),log(Viscosity),MD_density,MD_FV,MD_Rg,MD_SP_E,MD_SP_V,MD_SP,MD_HV,MD_RMSD,Reference
1236,3-heptanol,CCCCC(O)CC,288.1,0.003471017,9.17,0.962369336,0.819602264,0.16,21.41237624,12.53869465,15.96953237,20.30447026,14.54309669,29.39970297,"Diego Alonso Saldana, Laurie Starck, Pascal Mougin, Bernard Rousseau, Nicolas Ferrando, and Benoit Creton. Prediction of density and viscosity of biofuel compounds using machine learning methods. Energy & fuels, 26(4):2416-2426, 2012."
1237,3-heptanol,CCCCC(O)CC,291.5,0.003430532,7.17,0.855519156,0.822192203,0.12,21.40026733,12.48349009,16.03509483,20.32206347,14.53000702,29.41960396,"Diego Alonso Saldana, Laurie Starck, Pascal Mougin, Bernard Rousseau, Nicolas Ferrando, and Benoit Creton. Prediction of density and viscosity of biofuel compounds using machine learning methods. Energy & fuels, 26(4):2416-2426, 2012."
1238,3-heptanol,CCCCC(O)CC,298.1,0.003354579,5.38,0.730782276,0.812244076,0.12,21.48281188,12.12049522,15.80587979,19.91874378,14.15898819,29.56806931,"Diego Alonso Saldana, Laurie Starck, Pascal Mougin, Bernard Rousseau, Nicolas Ferrando, and Benoit Creton. Prediction of density and viscosity of biofuel compounds using machine learning methods. Energy & fuels, 26(4):2416-2426, 2012."
1239,3-heptanol,CCCCC(O)CC,301.3,0.003318951,4.42,0.645422269,0.80675591,0.17,21.53669307,11.95203016,15.67572681,19.71307074,13.97703651,29.6359703,"Diego Alonso Saldana, Laurie Starck, Pascal Mougin, Bernard Rousseau, Nicolas Ferrando, and Benoit Creton. Prediction of density and viscosity of biofuel compounds using machine learning methods. Energy & fuels, 26(4):2416-2426, 2012."
1240,3-heptanol,CCCCC(O)CC,308.1,0.003245699,3.49,0.542825427,0.813111902,0.12,21.48192079,11.88981022,15.81686132,19.78786034,13.98686482,29.55927723,"Diego Alonso Saldana, Laurie Starck, Pascal Mougin, Bernard Rousseau, Nicolas Ferrando, and Benoit Creton. Prediction of density and viscosity of biofuel compounds using machine learning methods. Energy & fuels, 26(4):2416-2426, 2012."
1241,3-heptanol,CCCCC(O)CC,311.5,0.003210273,2.99,0.475671188,0.798144762,0.19,21.60710891,11.53217284,15.49347657,19.31490113,13.60100733,29.72351485,"Diego Alonso Saldana, Laurie Starck, Pascal Mougin, Bernard Rousseau, Nicolas Ferrando, and Benoit Creton. Prediction of density and viscosity of biofuel compounds using machine learning methods. Energy & fuels, 26(4):2416-2426, 2012."
1242,3-heptanol,CCCCC(O)CC,327.0,0.003058104,1.69,0.227886705,0.784387443,0.23,21.73343564,10.82397574,15.19387002,18.65597272,12.97364921,29.9249604,"Diego Alonso Saldana, Laurie Starck, Pascal Mougin, Bernard Rousseau, Nicolas Ferrando, and Benoit Creton. Prediction of density and viscosity of biofuel compounds using machine learning methods. Energy & fuels, 26(4):2416-2426, 2012."
1243,3-heptanol,CCCCC(O)CC,346.6,0.00288517,1.02,0.008600172,0.759932663,0.55,21.96874257,9.875187793,14.66125615,17.67774978,12.11013458,30.19847525,"Diego Alonso Saldana, Laurie Starck, Pascal Mougin, Bernard Rousseau, Nicolas Ferrando, and Benoit Creton. Prediction of density and viscosity of biofuel compounds using machine learning methods. Energy & fuels, 26(4):2416-2426, 2012."
1244,3-Heptanol,CCCCC(O)CC,348.15,0.002872325,0.976,-0.010550182,0.760292834,0.62,21.9670297,9.889147217,14.66034322,17.68496032,12.11710115,30.27989109,"A Dean John et al. Lange's handbook of chemistry. In Universitas Of Tennese Knoxville, Fifthenth Edition, Mc. Graw Hill Inc, New York. Conference, 1999."
1245,3-heptanol,CCCCC(O)CC,359.6,0.002780868,0.76,-0.119186408,0.740250493,0.81,22.15543564,9.225301096,14.21687163,16.94878025,11.49262718,30.47158416,"Diego Alonso Saldana, Laurie Starck, Pascal Mougin, Bernard Rousseau, Nicolas Ferrando, and Benoit Creton. Prediction of density and viscosity of biofuel compounds using machine learning methods. Energy & fuels, 26(4):2416-2426, 2012."
1246,3-heptanol,CCCCC(O)CC,371.5,0.00269179,0.6,-0.22184875,0.720797616,0.93,22.36678218,8.636576682,13.81372774,16.29248396,10.96652814,30.71546535,"Diego Alonso Saldana, Laurie Starck, Pascal Mougin, Bernard Rousseau, Nicolas Ferrando, and Benoit Creton. Prediction of density and viscosity of biofuel compounds using machine learning methods. Energy & fuels, 26(4):2416-2426, 2012."
1247,3-Heptanol,CCCCC(O)CC,373.15,0.002679887,0.584,-0.233587153,0.733211354,0.69,22.22926733,8.748434947,14.06696186,16.56674112,11.13807035,30.63070297,"A Dean John et al. Lange's handbook of chemistry. In Universitas Of Tennese Knoxville, Fifthenth Edition, Mc. Graw Hill Inc, New York. Conference, 1999."
1248,3-heptanol,CCCCC(O)CC,390.3,0.002562132,0.44,-0.356547324,0.713566839,1.1,22.4240297,8.072209653,13.62384594,15.83685101,10.537764,30.82640594,"Diego Alonso Saldana, Laurie Starck, Pascal Mougin, Bernard Rousseau, Nicolas Ferrando, and Benoit Creton. Prediction of density and viscosity of biofuel compounds using machine learning methods. Energy & fuels, 26(4):2416-2426, 2012."
1249,Butyl cyclo pentane,CCCCC1CCCC1,298.15,0.003354016,0.83,-0.080921908,0.766690368,0.19,21.64911881,0.703175781,15.70586847,15.72163891,10.31972701,29.74140594,"Dabir S Viswanath, Tushar K Ghosh, Dasika HL Prasad, Nidamarty VK Dutt, Kalipatnapu Y Rani, Dabir S Viswanath, Tushar K Ghosh, Dasika HL Prasad, Nidamarty VK Dutt, and Kalipatnapu Y Rani. Correlations and estimation of pure liquid viscosity.Viscosity of Liquids: Theory, Estimation, Experiment, and Data, pages 135-405, 2007."
1250,n-butylcyclohexane,CCCCC1CCCCC1,253.1,0.003951008,2.93,0.46686762,0.825215599,0.07,21.11434653,0.720414245,17.04061575,17.05586928,12.3211536,29.0750198,"Diego Alonso Saldana, Laurie Starck, Pascal Mougin, Bernard Rousseau, Nicolas Ferrando, and Benoit Creton. Prediction of density and viscosity of biofuel compounds using machine learning methods. Energy & fuels, 26(4):2416-2426, 2012."
1251,n-butylcyclohexane,CCCCC1CCCCC1,263.1,0.003800836,2.34,0.369215857,0.820122122,0.04,21.16466337,0.713367364,16.86922896,16.88433423,12.1764364,29.0029802,"Diego Alonso Saldana, Laurie Starck, Pascal Mougin, Bernard Rousseau, Nicolas Ferrando, and Benoit Creton. Prediction of density and viscosity of biofuel compounds using machine learning methods. Energy & fuels, 26(4):2416-2426, 2012."
1252,n-butylcyclohexane,CCCCC1CCCCC1,273.1,0.003661662,1.9,0.278753601,0.806788349,0.09,21.27766337,0.688443235,16.5013091,16.51569196,11.87728083,29.26622772,"Diego Alonso Saldana, Laurie Starck, Pascal Mougin, Bernard Rousseau, Nicolas Ferrando, and Benoit Creton. Prediction of density and viscosity of biofuel compounds using machine learning methods. Energy & fuels, 26(4):2416-2426, 2012."
1253,n-butylcyclohexane,CCCCC1CCCCC1,283.1,0.003532321,1.57,0.195899652,0.799290454,0.16,21.34920792,0.678442849,16.28500842,16.29916065,11.70544178,29.41685149,"Diego Alonso Saldana, Laurie Starck, Pascal Mougin, Bernard Rousseau, Nicolas Ferrando, and Benoit Creton. Prediction of density and viscosity of biofuel compounds using machine learning methods. Energy & fuels, 26(4):2416-2426, 2012."
1254,n-butylcyclohexane,CCCCC1CCCCC1,293.1,0.003411805,1.31,0.117271296,0.787835972,0.19,21.44038614,0.660819785,15.96656887,15.98026866,11.44930316,29.59961386,"Diego Alonso Saldana, Laurie Starck, Pascal Mougin, Bernard Rousseau, Nicolas Ferrando, and Benoit Creton. Prediction of density and viscosity of biofuel compounds using machine learning methods. Energy & fuels, 26(4):2416-2426, 2012."
1255,n-butylcyclohexane,CCCCC1CCCCC1,298.1,0.003354579,1.2,0.079181246,0.790668988,0.11,21.4230198,0.666543915,16.02066416,16.03455084,11.49398969,29.36264356,"Diego Alonso Saldana, Laurie Starck, Pascal Mougin, Bernard Rousseau, Nicolas Ferrando, and Benoit Creton. Prediction of density and viscosity of biofuel compounds using machine learning methods. Energy & fuels, 26(4):2416-2426, 2012."
1256,n-butylcyclohexane,CCCCC1CCCCC1,303.1,0.003299241,1.11,0.045322979,0.78493553,0.15,21.47417822,0.657891137,15.86145765,15.8751192,11.36629679,29.42168317,"Diego Alonso Saldana, Laurie Starck, Pascal Mougin, Bernard Rousseau, Nicolas Ferrando, and Benoit Creton. Prediction of density and viscosity of biofuel compounds using machine learning methods. Energy & fuels, 26(4):2416-2426, 2012."
1257,n-butylcyclohexane,CCCCC1CCCCC1,313.1,0.003193868,0.95,-0.022276395,0.772696707,0.22,21.58059406,0.640392299,15.53229472,15.54552248,11.1073286,29.61144554,"Diego Alonso Saldana, Laurie Starck, Pascal Mougin, Bernard Rousseau, Nicolas Ferrando, and Benoit Creton. Prediction of density and viscosity of biofuel compounds using machine learning methods. Energy & fuels, 26(4):2416-2426, 2012."
1258,n-butylcyclohexane,CCCCC1CCCCC1,323.1,0.003095017,0.83,-0.080921908,0.758471081,0.35,21.71963366,0.622764431,15.15341176,15.16623891,10.80897475,29.7670198,"Diego Alonso Saldana, Laurie Starck, Pascal Mougin, Bernard Rousseau, Nicolas Ferrando, and Benoit Creton. Prediction of density and viscosity of biofuel compounds using machine learning methods. Energy & fuels, 26(4):2416-2426, 2012."
1259,n-butylcyclohexane,CCCCC1CCCCC1,333.1,0.003002101,0.73,-0.13667714,0.751971314,0.36,21.78480198,0.61414316,14.97831151,14.99092695,10.68101554,29.79759406,"Diego Alonso Saldana, Laurie Starck, Pascal Mougin, Bernard Rousseau, Nicolas Ferrando, and Benoit Creton. Prediction of density and viscosity of biofuel compounds using machine learning methods. Energy & fuels, 26(4):2416-2426, 2012."
1260,n-butylcyclohexane,CCCCC1CCCCC1,343.1,0.002914602,0.66,-0.180456065,0.746405255,0.55,21.83834653,0.601504536,14.80630761,14.81856148,10.54483184,29.91805941,"Diego Alonso Saldana, Laurie Starck, Pascal Mougin, Bernard Rousseau, Nicolas Ferrando, and Benoit Creton. Prediction of density and viscosity of biofuel compounds using machine learning methods. Energy & fuels, 26(4):2416-2426, 2012."
1261,n-butylcyclohexane,CCCCC1CCCCC1,353.1,0.002832059,0.6,-0.22184875,0.724711837,0.7,22.0560099,0.573115293,14.28104819,14.29258114,10.15161391,30.22878218,"Diego Alonso Saldana, Laurie Starck, Pascal Mougin, Bernard Rousseau, Nicolas Ferrando, and Benoit Creton. Prediction of density and viscosity of biofuel compounds using machine learning methods. Energy & fuels, 26(4):2416-2426, 2012."
1262,n-butylcyclohexane,CCCCC1CCCCC1,363.1,0.002754062,0.55,-0.259637311,0.73249221,0.51,21.98789109,0.583371927,14.43223539,14.44406045,10.27033383,30.09252475,"Diego Alonso Saldana, Laurie Starck, Pascal Mougin, Bernard Rousseau, Nicolas Ferrando, and Benoit Creton. Prediction of density and viscosity of biofuel compounds using machine learning methods. Energy & fuels, 26(4):2416-2426, 2012."
1263,n-butylcyclohexane,CCCCC1CCCCC1,373.1,0.002680247,0.51,-0.292429824,0.723310203,0.62,22.06750495,0.568521303,14.18470096,14.19612802,10.08231796,30.29648515,"Diego Alonso Saldana, Laurie Starck, Pascal Mougin, Bernard Rousseau, Nicolas Ferrando, and Benoit Creton. Prediction of density and viscosity of biofuel compounds using machine learning methods. Energy & fuels, 26(4):2416-2426, 2012."
1264,n-butylcyclohexane,CCCCC1CCCCC1,383.1,0.002610285,0.47,-0.327902142,0.712706474,0.76,22.17679208,0.558709705,13.90760147,13.91886088,9.874473956,30.40160396,"Diego Alonso Saldana, Laurie Starck, Pascal Mougin, Bernard Rousseau, Nicolas Ferrando, and Benoit Creton. Prediction of density and viscosity of biofuel compounds using machine learning methods. Energy & fuels, 26(4):2416-2426, 2012."
1265,Pentanal,CCCCC=O,293.15,0.003411223,0.54,-0.26760624,0.802484734,0.11,22.33385149,8.714870222,16.6486405,18.79177088,9.641571909,30.72861386,"Sunghwan Kim, Paul A Thiessen, Tiejun Cheng, Jian Zhang, Asta Gindulyte, and Evan E Bolton. Pug-view: programmatic access to chemical annotations integrated in pubchem. Journal of cheminformatics, 11(1):1-11, 2019."
1266,n-hexane,CCCCCC,233.1,0.004290004,0.64,-0.193820026,0.71728228,0.09,21.53220792,0.642300136,16.37181439,16.38444213,8.171816712,29.66565347,"Diego Alonso Saldana, Laurie Starck, Pascal Mougin, Bernard Rousseau, Nicolas Ferrando, and Benoit Creton. Prediction of density and viscosity of biofuel compounds using machine learning methods. Energy & fuels, 26(4):2416-2426, 2012."
1267,n-hexane,CCCCCC,253.1,0.003951008,0.48,-0.318758763,0.692166122,0.13,21.77655446,0.610496168,15.62483957,15.63679401,7.778873579,30.00980198,"Diego Alonso Saldana, Laurie Starck, Pascal Mougin, Bernard Rousseau, Nicolas Ferrando, and Benoit Creton. Prediction of density and viscosity of biofuel compounds using machine learning methods. Energy & fuels, 26(4):2416-2426, 2012."
1268,n-hexane,CCCCCC,273.1,0.003661662,0.38,-0.420216403,0.673411187,0.37,21.97935644,0.573621779,15.0543678,15.06533014,7.484620782,30.21883168,"Diego Alonso Saldana, Laurie Starck, Pascal Mougin, Bernard Rousseau, Nicolas Ferrando, and Benoit Creton. Prediction of density and viscosity of biofuel compounds using machine learning methods. Energy & fuels, 26(4):2416-2426, 2012."
1269,n-hexane,CCCCCC,273.95,0.003650301,0.3931,-0.405496956,0.669942038,0.29,22.02014851,0.578374694,14.96290962,14.97411913,7.43802977,30.3759703,"WE Wasburn. International critical tables of numerical data, physics, chemistry and technology. 1st electronic edition. Knovel: Norwich, NY, 2003."
1270,n-hexane,CCCCCC,282.3,0.003542331,0.3581,-0.445995679,0.670012541,0.38,22.02378218,0.585696118,14.93654736,14.94806241,7.429933842,30.42718812,"WE Wasburn. International critical tables of numerical data, physics, chemistry and technology. 1st electronic edition. Knovel: Norwich, NY, 2003."
1271,n-hexane,CCCCCC,287.9,0.003473428,0.3378,-0.471340355,0.654469177,0.44,22.1880495,0.560006003,14.51562961,14.52646733,7.213133205,30.54749505,"WE Wasburn. International critical tables of numerical data, physics, chemistry and technology. 1st electronic edition. Knovel: Norwich, NY, 2003."
1272,n-hexane,CCCCCC,288.6,0.003465003,0.32,-0.494850022,0.653768768,0.4,22.19909901,0.558438792,14.49370455,14.50449833,7.201527195,30.62210891,"Diego Alonso Saldana, Laurie Starck, Pascal Mougin, Bernard Rousseau, Nicolas Ferrando, and Benoit Creton. Prediction of density and viscosity of biofuel compounds using machine learning methods. Energy & fuels, 26(4):2416-2426, 2012."
1273,n-hexane,CCCCCC,293.1,0.003411805,0.31,-0.508638306,0.653717044,0.51,22.19659406,0.562101251,14.47961422,14.49055387,7.198287413,30.64611881,"Diego Alonso Saldana, Laurie Starck, Pascal Mougin, Bernard Rousseau, Nicolas Ferrando, and Benoit Creton. Prediction of density and viscosity of biofuel compounds using machine learning methods. Energy & fuels, 26(4):2416-2426, 2012."
1274,n-hexane,CCCCCC,293.13,0.003411456,0.3202,-0.494578672,0.654864504,0.4,22.19353465,0.557324593,14.50569798,14.51643288,7.210362354,30.57617822,"WE Wasburn. International critical tables of numerical data, physics, chemistry and technology. 1st electronic edition. Knovel: Norwich, NY, 2003."
1275,Hexane,CCCCCC,293.15,0.003411223,0.313,-0.504455663,0.649165933,0.69,22.25631683,0.552956044,14.37422183,14.38489483,7.147933554,30.5860099,"A Dean John et al. Lange's handbook of chemistry. In Universitas Of Tennese Knoxville, Fifthenth Edition, Mc. Graw Hill Inc, New York. Conference, 1999."
1276,n-hexane,CCCCCC,298.1,0.003354579,0.29,-0.537602002,0.647083016,0.58,22.27787129,0.549017469,14.29114032,14.30172548,7.102980562,30.72924752,"Diego Alonso Saldana, Laurie Starck, Pascal Mougin, Bernard Rousseau, Nicolas Ferrando, and Benoit Creton. Prediction of density and viscosity of biofuel compounds using machine learning methods. Energy & fuels, 26(4):2416-2426, 2012."
1277,n-hexane,CCCCCC,298.54,0.003349635,0.3035,-0.517841305,0.646767344,0.61,22.27765347,0.552021088,14.28703403,14.29772097,7.103369681,30.73238614,"WE Wasburn. International critical tables of numerical data, physics, chemistry and technology. 1st electronic edition. Knovel: Norwich, NY, 2003."
1278,n-hexane,CCCCCC,298.8,0.00334672,0.29,-0.537602002,0.640542548,0.69,22.34915842,0.541183345,14.12786628,14.13827831,7.021384654,30.74273267,"Diego Alonso Saldana, Laurie Starck, Pascal Mougin, Bernard Rousseau, Nicolas Ferrando, and Benoit Creton. Prediction of density and viscosity of biofuel compounds using machine learning methods. Energy & fuels, 26(4):2416-2426, 2012."
1279,n-hexane,CCCCCC,303.0,0.00330033,0.29,-0.537602002,0.643862706,0.54,22.31191089,0.547176466,14.19548505,14.20606583,7.058052337,30.6850297,"Diego Alonso Saldana, Laurie Starck, Pascal Mougin, Bernard Rousseau, Nicolas Ferrando, and Benoit Creton. Prediction of density and viscosity of biofuel compounds using machine learning methods. Energy & fuels, 26(4):2416-2426, 2012."
1280,n-hexane,CCCCCC,303.1,0.003299241,0.28,-0.552841969,0.635546561,0.63,22.40941584,0.534577765,13.98366157,13.99390836,6.948813276,30.83610891,"Diego Alonso Saldana, Laurie Starck, Pascal Mougin, Bernard Rousseau, Nicolas Ferrando, and Benoit Creton. Prediction of density and viscosity of biofuel compounds using machine learning methods. Energy & fuels, 26(4):2416-2426, 2012."
1281,n-hexane,CCCCCC,303.38,0.003296196,0.2894,-0.538501473,0.637834032,0.63,22.39158416,0.539664841,14.04193881,14.05234039,6.97953347,30.87422772,"WE Wasburn. International critical tables of numerical data, physics, chemistry and technology. 1st electronic edition. Knovel: Norwich, NY, 2003."
1282,n-hexane,CCCCCC,308.15,0.003245173,0.2828,-0.548520595,0.636280045,0.74,22.40309901,0.535638333,13.98809692,13.99838973,6.955594716,30.8660297,"WE Wasburn. International critical tables of numerical data, physics, chemistry and technology. 1st electronic edition. Knovel: Norwich, NY, 2003."
1283,n-hexane,CCCCCC,308.5,0.003241491,0.27,-0.568636236,0.63495015,0.59,22.41961386,0.537857823,13.95546949,13.96586958,6.940088711,30.93586139,"Diego Alonso Saldana, Laurie Starck, Pascal Mougin, Bernard Rousseau, Nicolas Ferrando, and Benoit Creton. Prediction of density and viscosity of biofuel compounds using machine learning methods. Energy & fuels, 26(4):2416-2426, 2012."
1284,n-hexane,CCCCCC,309.91,0.003226743,0.2722,-0.565111879,0.633532338,0.71,22.42868317,0.533825434,13.91324078,13.92351682,6.918646036,30.90529703,"WE Wasburn. International critical tables of numerical data, physics, chemistry and technology. 1st electronic edition. Knovel: Norwich, NY, 2003."
1285,n-hexane,CCCCCC,310.1,0.003224766,0.26,-0.585026652,0.643833815,0.54,22.3139802,0.554876449,14.1682935,14.17918828,7.048034442,30.69450495,"Diego Alonso Saldana, Laurie Starck, Pascal Mougin, Bernard Rousseau, Nicolas Ferrando, and Benoit Creton. Prediction of density and viscosity of biofuel compounds using machine learning methods. Energy & fuels, 26(4):2416-2426, 2012."
1286,n-hexane,CCCCCC,313.0,0.003194888,0.26,-0.585026652,0.629218482,0.88,22.48339604,0.528009777,13.79196685,13.80210572,6.857799848,30.97758416,"Diego Alonso Saldana, Laurie Starck, Pascal Mougin, Bernard Rousseau, Nicolas Ferrando, and Benoit Creton. Prediction of density and viscosity of biofuel compounds using machine learning methods. Energy & fuels, 26(4):2416-2426, 2012."
1287,n-hexane,CCCCCC,313.1,0.003193868,0.25,-0.602059991,0.62520715,0.78,22.5270396,0.519579195,13.6930621,13.70296348,6.80818145,30.99690099,"Diego Alonso Saldana, Laurie Starck, Pascal Mougin, Bernard Rousseau, Nicolas Ferrando, and Benoit Creton. Prediction of density and viscosity of biofuel compounds using machine learning methods. Energy & fuels, 26(4):2416-2426, 2012."
1288,n-hexane,CCCCCC,316.62,0.00315836,0.2557,-0.592269272,0.624975912,0.88,22.53347525,0.523327905,13.67463662,13.68470282,6.800991872,30.99443564,"WE Wasburn. International critical tables of numerical data, physics, chemistry and technology. 1st electronic edition. Knovel: Norwich, NY, 2003."