Index,Name,CANON_SMILES,Temperature (K),Inverse temperature (1/K),Viscosity (cP),log(Viscosity),MD_density,MD_FV,MD_Rg,MD_SP_E,MD_SP_V,MD_SP,MD_HV,MD_RMSD,Reference
2166,Ethyl propanoate,CCOC(=O)CC,303.15,0.003298697,0.473,-0.325138859,0.895048913,0.08,22.34634653,6.404120979,17.40278264,18.54389049,9.980856155,30.85091089,"A Dean John et al. Lange's handbook of chemistry. In Universitas Of Tennese Knoxville, Fifthenth Edition, Mc. Graw Hill Inc, New York. Conference, 1999."
2167,ethyl propionate,CCOC(=O)CC,313.03,0.003194582,0.423,-0.373659633,0.891197406,0.15,22.36966337,6.342565541,17.28925336,18.41610237,9.911654271,30.92763366,"WE Wasburn. International critical tables of numerical data, physics, chemistry and technology. 1st electronic edition. Knovel: Norwich, NY, 2003."
2168,ethyl propionate,CCOC(=O)CC,322.83,0.003097606,0.3817,-0.41827784,0.868314666,0.19,22.57550495,6.109715007,16.75743088,17.83667276,9.585417741,31.15541584,"WE Wasburn. International critical tables of numerical data, physics, chemistry and technology. 1st electronic edition. Knovel: Norwich, NY, 2003."
2169,ethyl propionate,CCOC(=O)CC,332.29,0.003009419,0.3477,-0.458795309,0.864920416,0.22,22.6009703,6.063585291,16.64868787,17.71867433,9.520908754,31.15512871,"WE Wasburn. International critical tables of numerical data, physics, chemistry and technology. 1st electronic edition. Knovel: Norwich, NY, 2003."
2170,ethyl propionate,CCOC(=O)CC,342.39,0.002920646,0.3155,-0.501000636,0.853384304,0.21,22.70074257,5.931141543,16.36446299,17.40631701,9.346925956,31.37151485,"WE Wasburn. International critical tables of numerical data, physics, chemistry and technology. 1st electronic edition. Knovel: Norwich, NY, 2003."
2171,ethyl propionate,CCOC(=O)CC,345.27,0.002896284,0.3073,-0.51243744,0.846343733,0.28,22.76668317,5.863423619,16.19975677,17.22838395,9.246985276,31.50921782,"WE Wasburn. International critical tables of numerical data, physics, chemistry and technology. 1st electronic edition. Knovel: Norwich, NY, 2003."
2172,ethyl propionate,CCOC(=O)CC,353.29,0.002830536,0.2854,-0.544546031,0.841948069,0.34,22.79813861,5.817072999,16.08399817,17.10378455,9.183619404,31.50908911,"WE Wasburn. International critical tables of numerical data, physics, chemistry and technology. 1st electronic edition. Knovel: Norwich, NY, 2003."
2173,ethyl propionate,CCOC(=O)CC,362.84,0.002756036,0.2627,-0.580539927,0.825308364,0.43,22.95750495,5.652408383,15.69878992,16.68556462,8.955635128,31.75773267,"WE Wasburn. International critical tables of numerical data, physics, chemistry and technology. 1st electronic edition. Knovel: Norwich, NY, 2003."
2174,Ethyl cyanoacetate,CCOC(=O)CC#N,303.15,0.003298697,2.148,0.332034277,1.033064182,0.03,22.97817822,13.58678389,18.45508259,22.91712984,14.3468011,31.79730693,"A Dean John et al. Lange's handbook of chemistry. In Universitas Of Tennese Knoxville, Fifthenth Edition, Mc. Graw Hill Inc, New York. Conference, 1999."
2175,diethyl malonate,CCOC(=O)CC(=O)OCC,288.1,0.003471017,2.38,0.376576957,1.080654829,0.01,22.03794059,8.656698467,19.77545579,21.58732107,17.08065908,30.36862376,"Diego Alonso Saldana, Laurie Starck, Pascal Mougin, Bernard Rousseau, Nicolas Ferrando, and Benoit Creton. Prediction of density and viscosity of biofuel compounds using machine learning methods. Energy & fuels, 26(4):2416-2426, 2012."
2176,diethyl malonate,CCOC(=O)CC(=O)OCC,293.1,0.003411805,2.15,0.33243846,1.077180278,0.02,22.06450495,8.587644419,19.68669088,21.47832162,16.97701449,30.47453465,"Diego Alonso Saldana, Laurie Starck, Pascal Mougin, Bernard Rousseau, Nicolas Ferrando, and Benoit Creton. Prediction of density and viscosity of biofuel compounds using machine learning methods. Energy & fuels, 26(4):2416-2426, 2012."
2177,"diethyl 1,2-propanedioate",CCOC(=O)CC(=O)OCC,293.15,0.003411223,2.15,0.33243846,1.076899295,0.02,22.0670297,8.582600134,19.67552227,21.4660789,16.96269513,30.49953465,"A Dean John et al. Lange's handbook of chemistry. In Universitas Of Tennese Knoxville, Fifthenth Edition, Mc. Graw Hill Inc, New York. Conference, 1999."
2178,diethyl malonate,CCOC(=O)CC(=O)OCC,298.1,0.003354579,1.9,0.278753601,1.066755685,0.01,22.1339604,8.471635034,19.4413544,21.20707516,16.73169705,30.66115842,"Diego Alonso Saldana, Laurie Starck, Pascal Mougin, Bernard Rousseau, Nicolas Ferrando, and Benoit Creton. Prediction of density and viscosity of biofuel compounds using machine learning methods. Energy & fuels, 26(4):2416-2426, 2012."
2179,diethyl malonate,CCOC(=O)CC(=O)OCC,303.1,0.003299241,1.75,0.243038049,1.066327548,0.03,22.13713861,8.440511745,19.41563965,21.1711327,16.69341455,30.50929703,"Diego Alonso Saldana, Laurie Starck, Pascal Mougin, Bernard Rousseau, Nicolas Ferrando, and Benoit Creton. Prediction of density and viscosity of biofuel compounds using machine learning methods. Energy & fuels, 26(4):2416-2426, 2012."
2180,ethyl acetoacetate,CCOC(=O)CC(C)=O,288.1,0.003471017,1.9,0.278753601,1.056434259,0.01,22.09745545,10.88150651,19.54694193,22.37177044,15.3088202,30.5770495,"Diego Alonso Saldana, Laurie Starck, Pascal Mougin, Bernard Rousseau, Nicolas Ferrando, and Benoit Creton. Prediction of density and viscosity of biofuel compounds using machine learning methods. Energy & fuels, 26(4):2416-2426, 2012."
2181,ethyl acetoacetate,CCOC(=O)CC(C)=O,298.1,0.003354579,1.58,0.198657087,1.043846219,0.03,22.18784158,10.68883156,19.25878994,22.02630578,15.04936335,30.64343564,"Diego Alonso Saldana, Laurie Starck, Pascal Mougin, Bernard Rousseau, Nicolas Ferrando, and Benoit Creton. Prediction of density and viscosity of biofuel compounds using machine learning methods. Energy & fuels, 26(4):2416-2426, 2012."
2182,ethyl acetoacetate,CCOC(=O)CC(C)=O,308.1,0.003245699,1.34,0.127104798,1.032256653,0.03,22.27031683,10.50802583,18.98057873,21.69533392,14.79551023,30.75213861,"Diego Alonso Saldana, Laurie Starck, Pascal Mougin, Bernard Rousseau, Nicolas Ferrando, and Benoit Creton. Prediction of density and viscosity of biofuel compounds using machine learning methods. Energy & fuels, 26(4):2416-2426, 2012."
2183,ethyl acetoacetate,CCOC(=O)CC(C)=O,318.1,0.003143666,1.14,0.056904851,1.021261497,0.03,22.34661386,10.33651488,18.71553335,21.38038806,14.55486091,30.89225743,"Diego Alonso Saldana, Laurie Starck, Pascal Mougin, Bernard Rousseau, Nicolas Ferrando, and Benoit Creton. Prediction of density and viscosity of biofuel compounds using machine learning methods. Energy & fuels, 26(4):2416-2426, 2012."
2184,ethyl acetoacetate,CCOC(=O)CC(C)=O,328.1,0.003047851,0.98,-0.008773924,1.017767537,0.05,22.37020792,10.2493934,18.60796088,21.24413389,14.44507829,30.93817822,"Diego Alonso Saldana, Laurie Starck, Pascal Mougin, Bernard Rousseau, Nicolas Ferrando, and Benoit Creton. Prediction of density and viscosity of biofuel compounds using machine learning methods. Energy & fuels, 26(4):2416-2426, 2012."
2185,ethyl acetoacetate,CCOC(=O)CC(C)=O,338.1,0.002957705,0.85,-0.070581074,1.00663584,0.08,22.44863366,10.07617051,18.34803471,20.93292922,14.21188416,30.91545545,"Diego Alonso Saldana, Laurie Starck, Pascal Mougin, Bernard Rousseau, Nicolas Ferrando, and Benoit Creton. Prediction of density and viscosity of biofuel compounds using machine learning methods. Energy & fuels, 26(4):2416-2426, 2012."
2186,ethyl acetoacetate,CCOC(=O)CC(C)=O,348.1,0.002872738,0.74,-0.13076828,0.992618849,0.18,22.56560396,9.895689583,18.02861981,20.56606786,13.94589059,31.10420792,"Diego Alonso Saldana, Laurie Starck, Pascal Mougin, Bernard Rousseau, Nicolas Ferrando, and Benoit Creton. Prediction of density and viscosity of biofuel compounds using machine learning methods. Energy & fuels, 26(4):2416-2426, 2012."
2187,ethyl acetoacetate,CCOC(=O)CC(C)=O,358.1,0.002792516,0.64,-0.193820026,0.980954116,0.13,22.64375248,9.737867389,17.74780649,20.24395246,13.70653116,31.32443564,"Diego Alonso Saldana, Laurie Starck, Pascal Mougin, Bernard Rousseau, Nicolas Ferrando, and Benoit Creton. Prediction of density and viscosity of biofuel compounds using machine learning methods. Energy & fuels, 26(4):2416-2426, 2012."
2188,Ethyl isovalerate,CCOC(=O)CC(C)C,298.15,0.003354016,0.53,-0.27572413,0.884287075,0.07,21.99209901,5.106887653,17.02679678,17.7763166,11.71149996,30.33721782,"Valentin Goussard, Francois Duprat, Jean-Luc Ploix, G erard Dreyfus, Veronique Nardello-Rataj, and Jean-Marie Aubry. A new machine-learning tool for fast estimation of liquid viscosity. application to cosmetic oils. Journal of Chemical Information and Modeling, 60(4):2012-2023, 2020."
2189,diethyl succinate,CCOC(=O)CCC(=O)OCC,293.1,0.003411805,2.81,0.44870632,1.065843608,0.01,21.86332673,8.619805142,19.36646332,21.19827767,18.13562668,30.223,"Diego Alonso Saldana, Laurie Starck, Pascal Mougin, Bernard Rousseau, Nicolas Ferrando, and Benoit Creton. Prediction of density and viscosity of biofuel compounds using machine learning methods. Energy & fuels, 26(4):2416-2426, 2012."
2190,diethyl succinate,CCOC(=O)CCC(=O)OCC,298.1,0.003354579,2.44,0.387389826,1.055030838,0.03,21.93681188,8.474130291,19.12191353,20.91569533,17.85583884,30.35221782,"Diego Alonso Saldana, Laurie Starck, Pascal Mougin, Bernard Rousseau, Nicolas Ferrando, and Benoit Creton. Prediction of density and viscosity of biofuel compounds using machine learning methods. Energy & fuels, 26(4):2416-2426, 2012."
2191,diethyl succinate,CCOC(=O)CCC(=O)OCC,298.15,0.003354016,2.41,0.382017043,1.054567809,0.01,21.93875248,8.493072807,19.11347464,20.91563007,17.86339401,30.26162376,"WE Wasburn. International critical tables of numerical data, physics, chemistry and technology. 1st electronic edition. Knovel: Norwich, NY, 2003."
2192,diethyl glutarate,CCOC(=O)CCCC(=O)OCC,298.15,0.003354016,2.49,0.396199347,1.033233649,0.01,21.8559802,7.319734298,18.90494024,20.2727054,18.48645865,30.28779208,"WE Wasburn. International critical tables of numerical data, physics, chemistry and technology. 1st electronic edition. Knovel: Norwich, NY, 2003."
2193,diethyl adipate,CCOC(=O)CCCCC(=O)OCC,298.15,0.003354016,2.78,0.444044796,1.021751702,0.03,21.73511881,7.284725432,18.77654074,20.14030347,19.782925,29.91657426,"WE Wasburn. International critical tables of numerical data, physics, chemistry and technology. 1st electronic edition. Knovel: Norwich, NY, 2003."
2194,diethyl n-pimelate,CCOC(=O)CCCCCC(=O)OCC,298.15,0.003354016,3.29,0.517195898,1.003289843,0.03,21.71878218,6.737028953,18.52548898,19.71263077,20.61330991,29.8679604,"WE Wasburn. International critical tables of numerical data, physics, chemistry and technology. 1st electronic edition. Knovel: Norwich, NY, 2003."
2195,diethyl suberate,CCOC(=O)CCCCCCC(=O)OCC,298.15,0.003354016,4.05,0.607455023,0.995170777,0.02,21.64039604,6.438920251,18.48477746,19.57427915,21.78507721,29.7090297,"WE Wasburn. International critical tables of numerical data, physics, chemistry and technology. 1st electronic edition. Knovel: Norwich, NY, 2003."
2196,nonanedioic acid diethyl ester,CCOC(=O)CCCCCCCC(=O)OCC,298.15,0.003354016,4.5,0.653212514,0.979835388,0.02,21.64832673,6.040772098,18.2743496,19.24703791,22.67060157,29.91764356,"Valentin Goussard, Francois Duprat, Jean-Luc Ploix, G erard Dreyfus, Veronique Nardello-Rataj, and Jean-Marie Aubry. A new machine-learning tool for fast estimation of liquid viscosity. application to cosmetic oils. Journal of Chemical Information and Modeling, 60(4):2012-2023, 2020."
2197,ethyl Œ≤-phenylpropionate,CCOC(=O)CCc1ccccc1,298.15,0.003354016,3.07,0.487138376,1.031379323,0.01,22.00292079,7.205064813,18.91827039,20.24400808,17.51896265,30.17810891,"WE Wasburn. International critical tables of numerical data, physics, chemistry and technology. 1st electronic edition. Knovel: Norwich, NY, 2003."
2198,Ethyl chloroacetate,CCOC(=O)CCl,247.15,0.004046126,2.93,0.46686762,1.221025558,0.01,22.83911881,10.66234087,20.37044612,22.99225476,13.17239547,31.74520792,"Sunghwan Kim, Paul A Thiessen, Tiejun Cheng, Jian Zhang, Asta Gindulyte, and Evan E Bolton. Pug-view: programmatic access to chemical annotations integrated in pubchem. Journal of cheminformatics, 11(1):1-11, 2019."
2199,ethyl chloroacetate,CCOC(=O)CCl,298.15,0.003354016,1.109174815,0.045,1.15672058,0.04,23.25459406,9.681613326,19.00015039,21.32469811,12.10741375,32.16821782,"Gregory W Kau man and Peter C Jurs. Prediction of surface tension, viscosity, and thermal conductivity for common organic solvents using quantitative structure- property relationships. Journal of chemical information and computer sciences, 41(2):408-418, 2001."
2200,ethyl phenyl acetate,CCOC(=O)Cc1ccccc1,288.1,0.003471017,2.98,0.474216264,1.058464476,0.01,22.07510891,8.188438901,19.36990656,21.0297539,16.9702593,30.48853465,"Diego Alonso Saldana, Laurie Starck, Pascal Mougin, Bernard Rousseau, Nicolas Ferrando, and Benoit Creton. Prediction of density and viscosity of biofuel compounds using machine learning methods. Energy & fuels, 26(4):2416-2426, 2012."
2201,ethyl phenyl acetate,CCOC(=O)Cc1ccccc1,298.1,0.003354579,2.39,0.378397901,1.056487837,0.02,22.08014851,8.120618449,19.27291995,20.91401638,16.84049966,30.44259406,"Diego Alonso Saldana, Laurie Starck, Pascal Mougin, Bernard Rousseau, Nicolas Ferrando, and Benoit Creton. Prediction of density and viscosity of biofuel compounds using machine learning methods. Energy & fuels, 26(4):2416-2426, 2012."
2202,ethyl phenylacetate,CCOC(=O)Cc1ccccc1,298.15,0.003354016,2.39,0.378397901,1.050747939,0.01,22.12945545,8.045483471,19.17314768,20.79291851,16.74070578,30.62517822,"WE Wasburn. International critical tables of numerical data, physics, chemistry and technology. 1st electronic edition. Knovel: Norwich, NY, 2003."
2203,ethyl phenyl acetate,CCOC(=O)Cc1ccccc1,303.1,0.003299241,2.14,0.330413773,1.046657302,0.02,22.16179208,7.97857174,19.07638087,20.67784336,16.63472431,30.53074257,"Diego Alonso Saldana, Laurie Starck, Pascal Mougin, Bernard Rousseau, Nicolas Ferrando, and Benoit Creton. Prediction of density and viscosity of biofuel compounds using machine learning methods. Energy & fuels, 26(4):2416-2426, 2012."
2204,ethyl phenyl acetate,CCOC(=O)Cc1ccccc1,308.1,0.003245699,1.95,0.290034611,1.040846493,0.03,22.19718812,7.880709383,18.92928385,20.50437662,16.46479231,30.59764356,"Diego Alonso Saldana, Laurie Starck, Pascal Mougin, Bernard Rousseau, Nicolas Ferrando, and Benoit Creton. Prediction of density and viscosity of biofuel compounds using machine learning methods. Energy & fuels, 26(4):2416-2426, 2012."
2205,ethyl phenyl acetate,CCOC(=O)Cc1ccccc1,318.1,0.003143666,1.62,0.209515015,1.0288036,0.02,22.28563366,7.712447647,18.64198193,20.17455614,16.15844323,30.82475248,"Diego Alonso Saldana, Laurie Starck, Pascal Mougin, Bernard Rousseau, Nicolas Ferrando, and Benoit Creton. Prediction of density and viscosity of biofuel compounds using machine learning methods. Energy & fuels, 26(4):2416-2426, 2012."
2206,ethyl phenyl acetate,CCOC(=O)Cc1ccccc1,328.1,0.003047851,1.38,0.139879086,1.028611568,0.03,22.28385149,7.676712796,18.59226397,20.11492188,16.0895188,30.72961386,"Diego Alonso Saldana, Laurie Starck, Pascal Mougin, Bernard Rousseau, Nicolas Ferrando, and Benoit Creton. Prediction of density and viscosity of biofuel compounds using machine learning methods. Energy & fuels, 26(4):2416-2426, 2012."
2207,ethyl phenyl acetate,CCOC(=O)Cc1ccccc1,338.1,0.002957705,1.19,0.075546961,1.013570867,0.06,22.39033663,7.466809857,18.26086076,19.7286115,15.7425175,30.91693069,"Diego Alonso Saldana, Laurie Starck, Pascal Mougin, Bernard Rousseau, Nicolas Ferrando, and Benoit Creton. Prediction of density and viscosity of biofuel compounds using machine learning methods. Energy & fuels, 26(4):2416-2426, 2012."
2208,ethyl phenyl acetate,CCOC(=O)Cc1ccccc1,348.1,0.002872738,1.04,0.017033339,0.995518892,0.09,22.52625743,7.24277875,17.85422102,19.26755505,15.32689937,31.13082178,"Diego Alonso Saldana, Laurie Starck, Pascal Mougin, Bernard Rousseau, Nicolas Ferrando, and Benoit Creton. Prediction of density and viscosity of biofuel compounds using machine learning methods. Energy & fuels, 26(4):2416-2426, 2012."
2209,ethyl phenyl acetate,CCOC(=O)Cc1ccccc1,358.1,0.002792516,0.91,-0.040958608,0.987034987,0.1,22.59422772,7.128097986,17.66061544,19.04504338,15.13358163,31.0670396,"Diego Alonso Saldana, Laurie Starck, Pascal Mougin, Bernard Rousseau, Nicolas Ferrando, and Benoit Creton. Prediction of density and viscosity of biofuel compounds using machine learning methods. Energy & fuels, 26(4):2416-2426, 2012."
2210,ethyl benzoate,CCOC(=O)c1ccccc1,284.1,0.003519887,2.71,0.432969291,1.079157213,0.01,22.24237624,7.69386659,19.95133017,21.38357902,15.77311345,30.63785149,"Diego Alonso Saldana, Laurie Starck, Pascal Mougin, Bernard Rousseau, Nicolas Ferrando, and Benoit Creton. Prediction of density and viscosity of biofuel compounds using machine learning methods. Energy & fuels, 26(4):2416-2426, 2012."
2211,ethyl benzoate,CCOC(=O)c1ccccc1,285.1,0.003507541,2.57,0.409933123,1.073157962,0.01,22.28839604,7.635024676,19.82733467,21.24675094,15.66505782,30.8260495,"Diego Alonso Saldana, Laurie Starck, Pascal Mougin, Bernard Rousseau, Nicolas Ferrando, and Benoit Creton. Prediction of density and viscosity of biofuel compounds using machine learning methods. Energy & fuels, 26(4):2416-2426, 2012."
2212,ethyl benzoate,CCOC(=O)c1ccccc1,288.1,0.003471017,2.41,0.382017043,1.068065952,0.01,22.31885149,7.566151098,19.7193116,21.121171,15.56418015,30.81140594,"Diego Alonso Saldana, Laurie Starck, Pascal Mougin, Bernard Rousseau, Nicolas Ferrando, and Benoit Creton. Prediction of density and viscosity of biofuel compounds using machine learning methods. Energy & fuels, 26(4):2416-2426, 2012."
2213,Ethyl benzoate,CCOC(=O)c1ccccc1,288.15,0.003470415,2.407,0.38147609,1.073964077,0.02,22.27994059,7.62600085,19.83289022,21.24867547,15.66249301,30.80814851,"A Dean John et al. Lange's handbook of chemistry. In Universitas Of Tennese Knoxville, Fifthenth Edition, Mc. Graw Hill Inc, New York. Conference, 1999."
2214,ethyl benzoate,CCOC(=O)c1ccccc1,293.1,0.003411805,2.23,0.348304863,1.068564441,0.01,22.32027723,7.563600058,19.69464295,21.09720335,15.5331302,30.89534653,"Diego Alonso Saldana, Laurie Starck, Pascal Mougin, Bernard Rousseau, Nicolas Ferrando, and Benoit Creton. Prediction of density and viscosity of biofuel compounds using machine learning methods. Energy & fuels, 26(4):2416-2426, 2012."
2215,ethyl benzoate,CCOC(=O)c1ccccc1,298.1,0.003354579,2.01,0.303196057,1.063758495,0.02,22.34968317,7.481540088,19.58319104,20.96378099,15.42125737,30.92348515,"Diego Alonso Saldana, Laurie Starck, Pascal Mougin, Bernard Rousseau, Nicolas Ferrando, and Benoit Creton. Prediction of density and viscosity of biofuel compounds using machine learning methods. Energy & fuels, 26(4):2416-2426, 2012."
2216,ethyl benzoate,CCOC(=O)c1ccccc1,303.1,0.003299241,1.75,0.243038049,1.06189896,0.03,22.36212871,7.440176846,19.52403688,20.89382834,15.35821134,30.86662376,"Diego Alonso Saldana, Laurie Starck, Pascal Mougin, Bernard Rousseau, Nicolas Ferrando, and Benoit Creton. Prediction of density and viscosity of biofuel compounds using machine learning methods. Energy & fuels, 26(4):2416-2426, 2012."
2217,Ethyl benzoate,CCOC(=O)c1ccccc1,303.15,0.003298697,1.751,0.243286146,1.062017433,0.02,22.36014851,7.437846753,19.52808816,20.89677276,15.36079345,30.81255446,"A Dean John et al. Lange's handbook of chemistry. In Universitas Of Tennese Knoxville, Fifthenth Edition, Mc. Graw Hill Inc, New York. Conference, 1999."
2218,ethyl benzoate,CCOC(=O)c1ccccc1,323.1,0.003095017,1.28,0.10720997,1.03885814,0.05,22.53033663,7.13024387,18.99068592,20.28529037,14.85942321,31.08472277,"Diego Alonso Saldana, Laurie Starck, Pascal Mougin, Bernard Rousseau, Nicolas Ferrando, and Benoit Creton. Prediction of density and viscosity of biofuel compounds using machine learning methods. Energy & fuels, 26(4):2416-2426, 2012."