Index,Name,CANON_SMILES,Temperature (K),Inverse temperature (1/K),Viscosity (cP),log(Viscosity),MD_density,MD_FV,MD_Rg,MD_SP_E,MD_SP_V,MD_SP,MD_HV,MD_RMSD,Reference
1015,sec-Butyl acetate,CCC(C)OC(C)=O,323.15,0.003094538,0.493,-0.307153081,0.865356094,0.18,22.34139604,5.281740965,16.37872567,17.20945096,10.1439527,30.80206931,"A Dean John et al. Lange's handbook of chemistry. In Universitas Of Tennese Knoxville, Fifthenth Edition, Mc. Graw Hill Inc, New York. Conference, 1999."
1016,sec-Butyl acetate,CCC(C)OC(C)=O,348.15,0.002872325,0.37,-0.431798276,0.84176788,0.29,22.54466337,5.030405472,15.78528787,16.56768207,9.744964182,31.09258416,"A Dean John et al. Lange's handbook of chemistry. In Universitas Of Tennese Knoxville, Fifthenth Edition, Mc. Graw Hill Inc, New York. Conference, 1999."
1017,sec-butylbenzene,CCC(C)c1ccccc1,298.15,0.003354016,0.97,-0.013228266,0.871127154,0.07,22.02136634,3.49272397,16.88456457,17.2423362,11.54066088,30.22992079,"Valentin Goussard, Francois Duprat, Jean-Luc Ploix, G erard Dreyfus, Veronique Nardello-Rataj, and Jean-Marie Aubry. A new machine-learning tool for fast estimation of liquid viscosity. application to cosmetic oils. Journal of Chemical Information and Modeling, 60(4):2012-2023, 2020."
1018,2-Ethylbutanoic acid,CCC(CC)C(=O)O,293.15,0.003411223,3.3,0.51851394,0.94274885,0.08,21.70771287,15.46905151,17.14468625,23.09212845,16.28610609,29.59242574,"A Dean John et al. Lange's handbook of chemistry. In Universitas Of Tennese Knoxville, Fifthenth Edition, Mc. Graw Hill Inc, New York. Conference, 1999."
1019,Triethylene glycol bis(2-ethylbutyrate),CCC(CC)C(=O)OCCOCCOCCOC(=O)C(CC)CC,293.15,0.003411223,10.3,1.012837225,1.008512653,0.03,21.42725743,6.985963354,17.52802247,18.86915418,29.81688596,26.42556436,"Sunghwan Kim, Paul A Thiessen, Tiejun Cheng, Jian Zhang, Asta Gindulyte, and Evan E Bolton. Pug-view: programmatic access to chemical annotations integrated in pubchem. Journal of cheminformatics, 11(1):1-11, 2019."
1020,nonanedioic acid bis-(1-ethyl-propyl) ester,CCC(CC)OC(=O)CCCCCCCC(=O)OC(CC)CC,298.15,0.003354016,9.8,0.991226076,0.927225069,0.04,21.54771287,4.048595159,16.9880781,17.46406839,26.41756591,28.49673267,"Valentin Goussard, Francois Duprat, Jean-Luc Ploix, G erard Dreyfus, Veronique Nardello-Rataj, and Jean-Marie Aubry. A new machine-learning tool for fast estimation of liquid viscosity. application to cosmetic oils. Journal of Chemical Information and Modeling, 60(4):2012-2023, 2020."
1021,3-ethyl-3-pentanol,CCC(O)(CC)CC,291.15,0.003434656,6.745280277,0.829,0.831949355,0.12,21.31854455,10.43421627,15.99605336,19.09902037,12.75616064,29.29106931,"Marina Cocchi, Pier Giuseppe De Benedetti, Renato Seeber, Lorenzo Tassi, and Alessandro Ulrici. Development of quantitative structure- property relationships using calculated descriptors for the prediction of the physicochemical properties of a series of organic solvents. Journal of chemical information and computer sciences, 39(6):1190-1203, 1999."
1022,ethylisopropyl carbinol,CCC(O)C(C)C,298.15,0.003354016,4.05,0.607455023,0.811526176,0.11,21.51010891,11.93097795,15.66355544,19.69068634,12.26029952,29.61618812,"WE Wasburn. International critical tables of numerical data, physics, chemistry and technology. 1st electronic edition. Knovel: Norwich, NY, 2003."
1023,3-Pentanol,CCC(O)CC,288.15,0.003470415,7.337,0.865518519,0.8236911,0.16,21.45785149,14.47818074,15.97803338,21.56238642,12.46481624,29.55665347,"A Dean John et al. Lange's handbook of chemistry. In Universitas Of Tennese Knoxville, Fifthenth Edition, Mc. Graw Hill Inc, New York. Conference, 1999."
1024,3-Pentanol,CCC(O)CC,303.15,0.003298697,3.306,0.519302849,0.802610067,0.15,21.64107921,13.69353694,15.53699494,20.7108045,11.86208055,29.75356436,"A Dean John et al. Lange's handbook of chemistry. In Universitas Of Tennese Knoxville, Fifthenth Edition, Mc. Graw Hill Inc, New York. Conference, 1999."
1025,"1,2-butanediol",CCC(O)CO,293.1,0.003411805,8.95,0.951823035,0.976983109,0.06,21.22568317,21.99343189,16.15698919,27.29074876,17.00297839,28.62931683,"Diego Alonso Saldana, Laurie Starck, Pascal Mougin, Bernard Rousseau, Nicolas Ferrando, and Benoit Creton. Prediction of density and viscosity of biofuel compounds using machine learning methods. Energy & fuels, 26(4):2416-2426, 2012."
1026,ethylcyclopentane,CCC1CCCC1,253.1,0.003951008,0.96,-0.017728767,0.800127805,0.05,21.33318812,0.782345377,16.94774874,16.96583618,8.945247704,29.29743564,"Diego Alonso Saldana, Laurie Starck, Pascal Mougin, Bernard Rousseau, Nicolas Ferrando, and Benoit Creton. Prediction of density and viscosity of biofuel compounds using machine learning methods. Energy & fuels, 26(4):2416-2426, 2012."
1027,ethylcyclopentane,CCC1CCCC1,263.1,0.003800836,0.83,-0.080921908,0.788538154,0.1,21.43384158,0.758664797,16.60798704,16.62533504,8.748817368,29.45368317,"Diego Alonso Saldana, Laurie Starck, Pascal Mougin, Bernard Rousseau, Nicolas Ferrando, and Benoit Creton. Prediction of density and viscosity of biofuel compounds using machine learning methods. Energy & fuels, 26(4):2416-2426, 2012."
1028,ethylcyclopentane,CCC1CCCC1,273.1,0.003661662,0.73,-0.13667714,0.776494227,0.17,21.54056436,0.746649819,16.27933205,16.29649441,8.569082238,29.58085149,"Diego Alonso Saldana, Laurie Starck, Pascal Mougin, Bernard Rousseau, Nicolas Ferrando, and Benoit Creton. Prediction of density and viscosity of biofuel compounds using machine learning methods. Energy & fuels, 26(4):2416-2426, 2012."
1029,ethylcyclopentane,CCC1CCCC1,283.1,0.003532321,0.64,-0.193820026,0.769483888,0.15,21.60269307,0.729897053,16.07120777,16.08780699,8.455967614,29.70051485,"Diego Alonso Saldana, Laurie Starck, Pascal Mougin, Bernard Rousseau, Nicolas Ferrando, and Benoit Creton. Prediction of density and viscosity of biofuel compounds using machine learning methods. Energy & fuels, 26(4):2416-2426, 2012."
1030,ethylcyclopentane,CCC1CCCC1,293.1,0.003411805,0.57,-0.244125144,0.755068285,0.26,21.74014851,0.711252998,15.68613037,15.70227512,8.245613466,29.8560495,"Diego Alonso Saldana, Laurie Starck, Pascal Mougin, Bernard Rousseau, Nicolas Ferrando, and Benoit Creton. Prediction of density and viscosity of biofuel compounds using machine learning methods. Energy & fuels, 26(4):2416-2426, 2012."
1031,ethylcyclopentane,CCC1CCCC1,298.1,0.003354579,0.54,-0.26760624,0.7569186,0.31,21.72887129,0.710046431,15.70950817,15.72558931,8.259539627,29.87516832,"Diego Alonso Saldana, Laurie Starck, Pascal Mougin, Bernard Rousseau, Nicolas Ferrando, and Benoit Creton. Prediction of density and viscosity of biofuel compounds using machine learning methods. Energy & fuels, 26(4):2416-2426, 2012."
1032,ethylcyclopentane,CCC1CCCC1,303.1,0.003299241,0.51,-0.292429824,0.743798156,0.27,21.85277228,0.693678251,15.37477761,15.39046326,8.07572191,30.0879901,"Diego Alonso Saldana, Laurie Starck, Pascal Mougin, Bernard Rousseau, Nicolas Ferrando, and Benoit Creton. Prediction of density and viscosity of biofuel compounds using machine learning methods. Energy & fuels, 26(4):2416-2426, 2012."
1033,ethylcyclopentane,CCC1CCCC1,313.1,0.003193868,0.46,-0.337242168,0.73414721,0.45,21.95971287,0.67126852,15.11015261,15.12509359,7.934974334,30.18806931,"Diego Alonso Saldana, Laurie Starck, Pascal Mougin, Bernard Rousseau, Nicolas Ferrando, and Benoit Creton. Prediction of density and viscosity of biofuel compounds using machine learning methods. Energy & fuels, 26(4):2416-2426, 2012."
1034,ethylcyclopentane,CCC1CCCC1,323.1,0.003095017,0.41,-0.387216143,0.717904915,0.52,22.11330693,0.646525177,14.6941858,14.70843565,7.713964042,30.38691089,"Diego Alonso Saldana, Laurie Starck, Pascal Mougin, Bernard Rousseau, Nicolas Ferrando, and Benoit Creton. Prediction of density and viscosity of biofuel compounds using machine learning methods. Energy & fuels, 26(4):2416-2426, 2012."
1035,ethylcyclopentane,CCC1CCCC1,333.1,0.003002101,0.38,-0.420216403,0.715405192,0.57,22.13550495,0.642440418,14.61087409,14.62502812,7.678294705,30.47955446,"Diego Alonso Saldana, Laurie Starck, Pascal Mougin, Bernard Rousseau, Nicolas Ferrando, and Benoit Creton. Prediction of density and viscosity of biofuel compounds using machine learning methods. Energy & fuels, 26(4):2416-2426, 2012."
1036,ethylcyclopentane,CCC1CCCC1,343.1,0.002914602,0.34,-0.468521083,0.708212937,0.68,22.22583168,0.635114356,14.40197862,14.41601216,7.568290528,30.55155446,"Diego Alonso Saldana, Laurie Starck, Pascal Mougin, Bernard Rousseau, Nicolas Ferrando, and Benoit Creton. Prediction of density and viscosity of biofuel compounds using machine learning methods. Energy & fuels, 26(4):2416-2426, 2012."
1037,ethylcyclopentane,CCC1CCCC1,353.1,0.002832059,0.32,-0.494850022,0.697176042,0.89,22.33251485,0.61242091,14.11735098,14.13067551,7.422996847,30.80762376,"Diego Alonso Saldana, Laurie Starck, Pascal Mougin, Bernard Rousseau, Nicolas Ferrando, and Benoit Creton. Prediction of density and viscosity of biofuel compounds using machine learning methods. Energy & fuels, 26(4):2416-2426, 2012."
1038,ethylcyclopentane,CCC1CCCC1,363.1,0.002754062,0.29,-0.537602002,0.68157759,1.06,22.50033663,0.594105485,13.72526697,13.7381608,7.220047604,30.90869307,"Diego Alonso Saldana, Laurie Starck, Pascal Mougin, Bernard Rousseau, Nicolas Ferrando, and Benoit Creton. Prediction of density and viscosity of biofuel compounds using machine learning methods. Energy & fuels, 26(4):2416-2426, 2012."
1039,ethylcyclopentane,CCC1CCCC1,373.1,0.002680247,0.27,-0.568636236,0.670749825,1.22,22.62876238,0.574075219,13.44794152,13.46023372,7.080360895,31.09880198,"Diego Alonso Saldana, Laurie Starck, Pascal Mougin, Bernard Rousseau, Nicolas Ferrando, and Benoit Creton. Prediction of density and viscosity of biofuel compounds using machine learning methods. Energy & fuels, 26(4):2416-2426, 2012."
1040,ethylcyclohexane,CCC1CCCCC1,273.1,0.003661662,1.14,0.056904851,0.794873276,0.09,21.3910099,0.673100075,16.37322637,16.38708072,9.603491312,29.4829505,"Diego Alonso Saldana, Laurie Starck, Pascal Mougin, Bernard Rousseau, Nicolas Ferrando, and Benoit Creton. Prediction of density and viscosity of biofuel compounds using machine learning methods. Energy & fuels, 26(4):2416-2426, 2012."
1041,ethylcyclohexane,CCC1CCCCC1,293.1,0.003411805,0.84,-0.075720714,0.775262116,0.16,21.56622772,0.646251951,15.82569221,15.83891476,9.261344577,29.51860396,"Diego Alonso Saldana, Laurie Starck, Pascal Mougin, Bernard Rousseau, Nicolas Ferrando, and Benoit Creton. Prediction of density and viscosity of biofuel compounds using machine learning methods. Energy & fuels, 26(4):2416-2426, 2012."
1042,ethylcyclohexane,CCC1CCCCC1,313.1,0.003193868,0.65,-0.187086643,0.769466543,0.25,21.6170396,0.635616551,15.62394557,15.63690415,9.144833716,29.65852475,"Diego Alonso Saldana, Laurie Starck, Pascal Mougin, Bernard Rousseau, Nicolas Ferrando, and Benoit Creton. Prediction of density and viscosity of biofuel compounds using machine learning methods. Energy & fuels, 26(4):2416-2426, 2012."
1043,"1,2-Epoxybutane",CCC1CO1,288.15,0.003470415,0.419,-0.377785977,0.797305171,0.2,22.60843564,6.543668651,15.81439309,17.1149009,6.904166783,31.27490099,"A Dean John et al. Lange's handbook of chemistry. In Universitas Of Tennese Knoxville, Fifthenth Edition, Mc. Graw Hill Inc, New York. Conference, 1999."
1044,1-butene oxide,CCC1CO1,298.15,0.003354016,0.4,-0.397940009,0.784436529,0.37,22.73448515,6.381716727,15.4911073,16.75426983,6.759569466,31.43452475,"Sunghwan Kim, Paul A Thiessen, Tiejun Cheng, Jian Zhang, Asta Gindulyte, and Evan E Bolton. Pug-view: programmatic access to chemical annotations integrated in pubchem. Journal of cheminformatics, 11(1):1-11, 2019."
1045,"1,2-Epoxybutane",CCC1CO1,303.15,0.003298697,0.358,-0.446116973,0.777812218,0.38,22.80034653,6.295805318,15.32631282,16.56919894,6.68537164,31.57869307,"A Dean John et al. Lange's handbook of chemistry. In Universitas Of Tennese Knoxville, Fifthenth Edition, Mc. Graw Hill Inc, New York. Conference, 1999."
1046,2-Nitro-2-pentene,CCC=C(C)[N+](=O)[O-],303.15,0.003298697,0.87,-0.060480747,0.983299605,0.06,22.53940594,9.324115121,18.33573868,20.570428,12.44383561,31.06821782,"Dabir S Viswanath, Tushar K Ghosh, Dasika HL Prasad, Nidamarty VK Dutt, Kalipatnapu Y Rani, Dabir S Viswanath, Tushar K Ghosh, Dasika HL Prasad, Nidamarty VK Dutt, and Kalipatnapu Y Rani. Correlations and estimation of pure liquid viscosity.Viscosity of Liquids: Theory, Estimation, Experiment, and Data, pages 135-405, 2007."
1047,propionaldehyde,CCC=O,273.15,0.003660992,0.467,-0.330683119,0.812748848,0.1,22.81427723,11.80196328,17.2203435,20.87652246,7.986613152,31.66841584,"WE Wasburn. International critical tables of numerical data, physics, chemistry and technology. 1st electronic edition. Knovel: Norwich, NY, 2003."
1048,Propionaldehyde (propanal),CCC=O,288.15,0.003470415,0.357,-0.447331784,0.789913067,0.2,23.02706931,11.40550918,16.66321546,20.19288305,7.738209559,31.94108911,"A Dean John et al. Lange's handbook of chemistry. In Universitas Of Tennese Knoxville, Fifthenth Edition, Mc. Graw Hill Inc, New York. Conference, 1999."
1049,Propionaldehyde,CCC=O,299.85,0.003335001,0.3167,-0.499351937,0.78245779,0.18,23.09752475,11.23180587,16.45844328,19.92580617,7.63965415,31.98924752,"Sunghwan Kim, Paul A Thiessen, Tiejun Cheng, Jian Zhang, Asta Gindulyte, and Evan E Bolton. Pug-view: programmatic access to chemical annotations integrated in pubchem. Journal of cheminformatics, 11(1):1-11, 2019."
1050,n-propyl bromide,CCCBr,273.6,0.003654971,0.6414,-0.192871044,1.431190339,0.09,23.50357426,7.061162451,17.69624154,19.05309612,8.000205559,32.50828713,"WE Wasburn. International critical tables of numerical data, physics, chemistry and technology. 1st electronic edition. Knovel: Norwich, NY, 2003."
1051,n-propyl bromide,CCCBr,281.01,0.003558592,0.5884,-0.230327336,1.423783851,0.08,23.54681188,6.983979221,17.57186629,18.90898699,7.940765141,32.63511881,"WE Wasburn. International critical tables of numerical data, physics, chemistry and technology. 1st electronic edition. Knovel: Norwich, NY, 2003."
1052,n-propyl bromide,CCCBr,286.81,0.003486629,0.5523,-0.257824957,1.411298529,0.11,23.61329703,6.898346185,17.38400535,18.70280615,7.856074533,32.71056436,"WE Wasburn. International critical tables of numerical data, physics, chemistry and technology. 1st electronic edition. Knovel: Norwich, NY, 2003."
1053,1-Bromopropane,CCCBr,288.15,0.003470415,0.539,-0.268411235,1.403791153,0.12,23.65589109,6.860977565,17.27361555,18.58641594,7.806823824,32.75831683,"A Dean John et al. Lange's handbook of chemistry. In Universitas Of Tennese Knoxville, Fifthenth Edition, Mc. Graw Hill Inc, New York. Conference, 1999."
1054,n-propyl bromide,CCCBr,292.32,0.003420909,0.5209,-0.283245643,1.400779689,0.14,23.6750099,6.836509652,17.21432115,18.52227116,7.78070672,32.76243564,"WE Wasburn. International critical tables of numerical data, physics, chemistry and technology. 1st electronic edition. Knovel: Norwich, NY, 2003."
1055,n-propyl bromide,CCCBr,298.59,0.003349074,0.4903,-0.309538107,1.39116223,0.13,23.73,6.760320571,17.06076436,18.35141937,7.709819115,32.85083168,"WE Wasburn. International critical tables of numerical data, physics, chemistry and technology. 1st electronic edition. Knovel: Norwich, NY, 2003."
1056,1-Bromopropane,CCCBr,303.15,0.003298697,0.459,-0.338187315,1.377288495,0.16,23.81293069,6.672435318,16.86470523,18.13680636,7.623417839,32.95194059,"A Dean John et al. Lange's handbook of chemistry. In Universitas Of Tennese Knoxville, Fifthenth Edition, Mc. Graw Hill Inc, New York. Conference, 1999."
1057,n-propyl bromide,CCCBr,305.03,0.003278366,0.4588,-0.338376591,1.372579258,0.24,23.83574257,6.647417126,16.80273244,18.06996577,7.59941083,33.00128713,"WE Wasburn. International critical tables of numerical data, physics, chemistry and technology. 1st electronic edition. Knovel: Norwich, NY, 2003."
1058,n-propyl bromide,CCCBr,311.75,0.003207698,0.43,-0.366531544,1.358955237,0.25,23.92041584,6.570327652,16.58171264,17.83609935,7.501230756,33.02647525,"WE Wasburn. International critical tables of numerical data, physics, chemistry and technology. 1st electronic edition. Knovel: Norwich, NY, 2003."
1059,n-propyl bromide,CCCBr,318.79,0.003136861,0.4032,-0.394479477,1.340222681,0.3,24.02345545,6.458597882,16.31445869,17.54650069,7.386646807,33.25,"WE Wasburn. International critical tables of numerical data, physics, chemistry and technology. 1st electronic edition. Knovel: Norwich, NY, 2003."
1060,n-propyl bromide,CCCBr,324.16,0.003084896,0.3844,-0.415216621,1.34554365,0.3,23.9940099,6.454141374,16.37167664,17.59805103,7.410209162,33.23162376,"WE Wasburn. International critical tables of numerical data, physics, chemistry and technology. 1st electronic edition. Knovel: Norwich, NY, 2003."
1061,n-propyl bromide,CCCBr,330.52,0.003025536,0.3633,-0.439734602,1.329959666,0.41,24.07886139,6.368511557,16.14177357,17.35277072,7.31263404,33.28662376,"WE Wasburn. International critical tables of numerical data, physics, chemistry and technology. 1st electronic edition. Knovel: Norwich, NY, 2003."
1062,n-propyl bromide,CCCBr,335.13,0.002983917,0.3495,-0.45655282,1.321978891,0.3,24.14130693,6.297727539,16.01784461,17.21153768,7.253433361,33.46950495,"WE Wasburn. International critical tables of numerical data, physics, chemistry and technology. 1st electronic edition. Knovel: Norwich, NY, 2003."
1063,n-propyl bromide,CCCBr,341.01,0.002932465,0.3328,-0.477816682,1.305251871,0.43,24.23873267,6.215232369,15.78480843,16.96448852,7.159362081,33.50716832,"WE Wasburn. International critical tables of numerical data, physics, chemistry and technology. 1st electronic edition. Knovel: Norwich, NY, 2003."
1064,1-Bromopropane,CCCBr,343.15,0.002914177,0.338,-0.4710833,1.309767236,0.4,24.21133663,6.235494159,15.83621614,17.01970489,7.183392923,33.48245545,"A Dean John et al. Lange's handbook of chemistry. In Universitas Of Tennese Knoxville, Fifthenth Edition, Mc. Graw Hill Inc, New York. Conference, 1999."
1065,n-butane,CCCC,249.55,0.004007213,0.265,-0.576754126,0.622610332,0.4,22.291,0.562667876,14.75016696,14.7609264,5.357430631,30.81016832,"WE Wasburn. International critical tables of numerical data, physics, chemistry and technology. 1st electronic edition. Knovel: Norwich, NY, 2003."
1066,n-butane,CCCC,273.15,0.003660992,0.207,-0.684029655,0.59359853,0.72,22.65894059,0.525544109,13.8870359,13.89701558,5.062535446,31.2419505,"WE Wasburn. International critical tables of numerical data, physics, chemistry and technology. 1st electronic edition. Knovel: Norwich, NY, 2003."
1067,n-Butane,CCCC,278.15,0.003595182,0.22,-0.657577319,0.583981667,0.94,22.78059406,0.512985164,13.62724567,13.63692724,4.976548785,31.40436634,"Dabir S Viswanath, Tushar K Ghosh, Dasika HL Prasad, Nidamarty VK Dutt, Kalipatnapu Y Rani, Dabir S Viswanath, Tushar K Ghosh, Dasika HL Prasad, Nidamarty VK Dutt, and Kalipatnapu Y Rani. Correlations and estimation of pure liquid viscosity.Viscosity of Liquids: Theory, Estimation, Experiment, and Data, pages 135-405, 2007."
1068,n-butane,CCCC,291.65,0.003428767,0.176,-0.754487332,0.572114083,1.19,22.93235644,0.501151765,13.27507446,13.28457494,4.864814986,31.69357426,"WE Wasburn. International critical tables of numerical data, physics, chemistry and technology. 1st electronic edition. Knovel: Norwich, NY, 2003."
1069,n-butane,CCCC,307.65,0.003250447,0.153,-0.815308569,0.544313026,1.88,23.3089604,0.466603838,12.5112995,12.52003789,4.61196815,32.22217822,"WE Wasburn. International critical tables of numerical data, physics, chemistry and technology. 1st electronic edition. Knovel: Norwich, NY, 2003."