Index,Name,CANON_SMILES,Temperature (K),Inverse temperature (1/K),Viscosity (cP),log(Viscosity),MD_density,MD_FV,MD_Rg,MD_SP_E,MD_SP_V,MD_SP,MD_HV,MD_RMSD,Reference
1448,Nonyl cyclo pentane,CCCCCCCCCC1CCCC1,298.15,0.003354016,2.63,0.419955749,0.796960268,0.11,21.37133663,0.707083156,16.19728772,16.21275207,16.07270162,29.23511881,"Dabir S Viswanath, Tushar K Ghosh, Dasika HL Prasad, Nidamarty VK Dutt, Kalipatnapu Y Rani, Dabir S Viswanath, Tushar K Ghosh, Dasika HL Prasad, Nidamarty VK Dutt, and Kalipatnapu Y Rani. Correlations and estimation of pure liquid viscosity.Viscosity of Liquids: Theory, Estimation, Experiment, and Data, pages 135-405, 2007."
1449,n-Nonyl cyclo hexane,CCCCCCCCCC1CCCCC1,298.15,0.003354016,3.8,0.579783597,0.803191286,0.12,21.31590099,0.673487774,16.18188059,16.19592858,17.01563771,29.3299802,"Dabir S Viswanath, Tushar K Ghosh, Dasika HL Prasad, Nidamarty VK Dutt, Kalipatnapu Y Rani, Dabir S Viswanath, Tushar K Ghosh, Dasika HL Prasad, Nidamarty VK Dutt, and Kalipatnapu Y Rani. Correlations and estimation of pure liquid viscosity.Viscosity of Liquids: Theory, Estimation, Experiment, and Data, pages 135-405, 2007."
1450,n-Decyl bromide,CCCCCCCCCCBr,293.15,0.003411223,2.55,0.40654018,1.085188516,0.06,21.93238614,3.672572043,17.09904973,17.48918839,15.48300219,30.18067327,"Dabir S Viswanath, Tushar K Ghosh, Dasika HL Prasad, Nidamarty VK Dutt, Kalipatnapu Y Rani, Dabir S Viswanath, Tushar K Ghosh, Dasika HL Prasad, Nidamarty VK Dutt, and Kalipatnapu Y Rani. Correlations and estimation of pure liquid viscosity.Viscosity of Liquids: Theory, Estimation, Experiment, and Data, pages 135-405, 2007."
1451,n-undecane,CCCCCCCCCCC,293.1,0.003411805,1.17,0.068185862,0.735424036,0.27,21.61135644,0.624472668,15.58560052,15.59813263,12.94217307,29.85645545,"Diego Alonso Saldana, Laurie Starck, Pascal Mougin, Bernard Rousseau, Nicolas Ferrando, and Benoit Creton. Prediction of density and viscosity of biofuel compounds using machine learning methods. Energy & fuels, 26(4):2416-2426, 2012."
1452,n-undecane,CCCCCCCCCCC,295.85,0.003380091,0.94,-0.026872146,0.738479037,0.11,21.58865347,0.626246163,15.65520766,15.66776516,13.00666839,29.77338614,"WE Wasburn. International critical tables of numerical data, physics, chemistry and technology. 1st electronic edition. Knovel: Norwich, NY, 2003."
1453,n-undecane,CCCCCCCCCCC,308.1,0.003245699,0.93,-0.031517051,0.71700795,0.24,21.80194059,0.600987267,15.06388053,15.07590439,12.45480029,30.05678218,"Diego Alonso Saldana, Laurie Starck, Pascal Mougin, Bernard Rousseau, Nicolas Ferrando, and Benoit Creton. Prediction of density and viscosity of biofuel compounds using machine learning methods. Energy & fuels, 26(4):2416-2426, 2012."
1454,n-undecane,CCCCCCCCCCC,313.1,0.003193868,0.86,-0.065501549,0.715821817,0.37,21.80913861,0.596572456,15.01186127,15.0237457,12.40241023,30.00422772,"Diego Alonso Saldana, Laurie Starck, Pascal Mougin, Bernard Rousseau, Nicolas Ferrando, and Benoit Creton. Prediction of density and viscosity of biofuel compounds using machine learning methods. Energy & fuels, 26(4):2416-2426, 2012."
1455,undecylic acid,CCCCCCCCCCC(=O)O,323.15,0.003094538,7.3,0.86332286,0.8742734,0.1,21.63464356,11.49858416,16.65103754,20.23586068,21.49699798,29.66051485,"WE Wasburn. International critical tables of numerical data, physics, chemistry and technology. 1st electronic edition. Knovel: Norwich, NY, 2003."
1456,undecanoic acid 1-methyl-pentyl ester,CCCCCCCCCCC(=O)OC(C)CCCC,298.15,0.003354016,4.3,0.633468456,0.849527057,0.09,21.53143564,2.517042452,16.46609997,16.65755511,21.70563273,29.65875248,"Valentin Goussard, Francois Duprat, Jean-Luc Ploix, G erard Dreyfus, Veronique Nardello-Rataj, and Jean-Marie Aubry. A new machine-learning tool for fast estimation of liquid viscosity. application to cosmetic oils. Journal of Chemical Information and Modeling, 60(4):2012-2023, 2020."
1457,undecanoic acid 1-methyl-hexyl ester,CCCCCCCCCCC(=O)OC(C)CCCCC,298.15,0.003354016,5.0,0.698970004,0.852509791,0.08,21.47409901,2.443089858,16.54402353,16.72376377,22.89920784,29.40922772,"Valentin Goussard, Francois Duprat, Jean-Luc Ploix, G erard Dreyfus, Veronique Nardello-Rataj, and Jean-Marie Aubry. A new machine-learning tool for fast estimation of liquid viscosity. application to cosmetic oils. Journal of Chemical Information and Modeling, 60(4):2012-2023, 2020."
1458,undecanoic acid 1-methyl-heptyl ester,CCCCCCCCCCC(=O)OC(C)CCCCCC,298.15,0.003354016,5.8,0.763427994,0.855461395,0.19,21.42545545,2.370201186,16.60052001,16.76912976,24.04495947,29.2420396,"Valentin Goussard, Francois Duprat, Jean-Luc Ploix, G erard Dreyfus, Veronique Nardello-Rataj, and Jean-Marie Aubry. A new machine-learning tool for fast estimation of liquid viscosity. application to cosmetic oils. Journal of Chemical Information and Modeling, 60(4):2012-2023, 2020."
1459,Decyl cyclo pentane,CCCCCCCCCCC1CCCC1,298.15,0.003354016,3.2,0.505149978,0.798367486,0.1,21.35326733,0.69956239,16.19439249,16.20952632,17.14260026,29.50391089,"Dabir S Viswanath, Tushar K Ghosh, Dasika HL Prasad, Nidamarty VK Dutt, Kalipatnapu Y Rani, Dabir S Viswanath, Tushar K Ghosh, Dasika HL Prasad, Nidamarty VK Dutt, and Kalipatnapu Y Rani. Correlations and estimation of pure liquid viscosity.Viscosity of Liquids: Theory, Estimation, Experiment, and Data, pages 135-405, 2007."
1460,n-dodecane,CCCCCCCCCCCC,262.1,0.003815338,2.97,0.472756449,0.773214481,0.05,21.28444554,0.662004252,16.6025609,16.61578561,15.05751237,29.3060396,"Diego Alonso Saldana, Laurie Starck, Pascal Mougin, Bernard Rousseau, Nicolas Ferrando, and Benoit Creton. Prediction of density and viscosity of biofuel compounds using machine learning methods. Energy & fuels, 26(4):2416-2426, 2012."
1461,n-dodecane,CCCCCCCCCCCC,268.1,0.003729952,2.55,0.40654018,0.768365953,0.05,21.33286139,0.653211599,16.43738935,16.45040259,14.87142223,29.40989109,"Diego Alonso Saldana, Laurie Starck, Pascal Mougin, Bernard Rousseau, Nicolas Ferrando, and Benoit Creton. Prediction of density and viscosity of biofuel compounds using machine learning methods. Energy & fuels, 26(4):2416-2426, 2012."
1462,n-dodecane,CCCCCCCCCCCC,273.1,0.003661662,2.26,0.354108439,0.762762406,0.13,21.39284158,0.648197603,16.27439389,16.28733293,14.70174954,29.59986139,"Diego Alonso Saldana, Laurie Starck, Pascal Mougin, Bernard Rousseau, Nicolas Ferrando, and Benoit Creton. Prediction of density and viscosity of biofuel compounds using machine learning methods. Energy & fuels, 26(4):2416-2426, 2012."
1463,n-dodecane,CCCCCCCCCCCC,283.1,0.003532321,1.82,0.260071388,0.746396607,0.12,21.5339802,0.628770788,15.80281397,15.81535684,14.2056215,29.77617822,"Diego Alonso Saldana, Laurie Starck, Pascal Mougin, Bernard Rousseau, Nicolas Ferrando, and Benoit Creton. Prediction of density and viscosity of biofuel compounds using machine learning methods. Energy & fuels, 26(4):2416-2426, 2012."
1464,n-dodecane,CCCCCCCCCCCC,288.8,0.003462604,1.61,0.206825876,0.747282381,0.14,21.52990099,0.632812963,15.79482125,15.80752232,14.18727136,29.74238614,"Diego Alonso Saldana, Laurie Starck, Pascal Mougin, Bernard Rousseau, Nicolas Ferrando, and Benoit Creton. Prediction of density and viscosity of biofuel compounds using machine learning methods. Energy & fuels, 26(4):2416-2426, 2012."
1465,n-dodecane,CCCCCCCCCCCC,293.1,0.003411805,1.49,0.173186268,0.743041082,0.14,21.57690099,0.620101682,15.67787995,15.69017373,14.07102391,29.7140495,"Diego Alonso Saldana, Laurie Starck, Pascal Mougin, Bernard Rousseau, Nicolas Ferrando, and Benoit Creton. Prediction of density and viscosity of biofuel compounds using machine learning methods. Energy & fuels, 26(4):2416-2426, 2012."
1466,n-dodecane,CCCCCCCCCCCC,293.8,0.003403676,1.47,0.167317335,0.74026895,0.19,21.59464356,0.621983019,15.60303732,15.61546391,13.99430366,29.76516832,"Diego Alonso Saldana, Laurie Starck, Pascal Mougin, Bernard Rousseau, Nicolas Ferrando, and Benoit Creton. Prediction of density and viscosity of biofuel compounds using machine learning methods. Energy & fuels, 26(4):2416-2426, 2012."
1467,n-dodecane,CCCCCCCCCCCC,296.45,0.00337325,1.15,0.06069784,0.73894997,0.11,21.61362376,0.61567053,15.55503937,15.56725382,13.94066538,29.76253465,"WE Wasburn. International critical tables of numerical data, physics, chemistry and technology. 1st electronic edition. Knovel: Norwich, NY, 2003."
1468,n-dodecane,CCCCCCCCCCCC,307.5,0.003252033,1.16,0.064457989,0.725176172,0.19,21.7529505,0.604065406,15.16541711,15.17748481,13.54344948,30.09485149,"Diego Alonso Saldana, Laurie Starck, Pascal Mougin, Bernard Rousseau, Nicolas Ferrando, and Benoit Creton. Prediction of density and viscosity of biofuel compounds using machine learning methods. Energy & fuels, 26(4):2416-2426, 2012."
1469,n-dodecane,CCCCCCCCCCCC,307.6,0.003250975,1.16,0.064457989,0.732076776,0.24,21.67347525,0.617059588,15.33670019,15.34914223,13.71321493,30.02488119,"Diego Alonso Saldana, Laurie Starck, Pascal Mougin, Bernard Rousseau, Nicolas Ferrando, and Benoit Creton. Prediction of density and viscosity of biofuel compounds using machine learning methods. Energy & fuels, 26(4):2416-2426, 2012."
1470,n-dodecane,CCCCCCCCCCCC,308.1,0.003245699,1.15,0.06069784,0.731050227,0.25,21.68071287,0.614567537,15.30746551,15.31983221,13.68254733,30.01162376,"Diego Alonso Saldana, Laurie Starck, Pascal Mougin, Bernard Rousseau, Nicolas Ferrando, and Benoit Creton. Prediction of density and viscosity of biofuel compounds using machine learning methods. Energy & fuels, 26(4):2416-2426, 2012."
1471,n-dodecane,CCCCCCCCCCCC,313.1,0.003193868,1.06,0.025305865,0.722797287,0.29,21.76923762,0.603835598,15.08516699,15.09727954,13.46041928,29.94526733,"Diego Alonso Saldana, Laurie Starck, Pascal Mougin, Bernard Rousseau, Nicolas Ferrando, and Benoit Creton. Prediction of density and viscosity of biofuel compounds using machine learning methods. Energy & fuels, 26(4):2416-2426, 2012."
1472,n-dodecane,CCCCCCCCCCCC,313.4,0.00319081,1.06,0.025305865,0.734248532,0.22,21.66174257,0.62354113,15.36750988,15.3801939,13.73886304,29.963,"Diego Alonso Saldana, Laurie Starck, Pascal Mougin, Bernard Rousseau, Nicolas Ferrando, and Benoit Creton. Prediction of density and viscosity of biofuel compounds using machine learning methods. Energy & fuels, 26(4):2416-2426, 2012."
1473,n-dodecane,CCCCCCCCCCCC,313.5,0.003189793,1.06,0.025305865,0.72389006,0.29,21.76672277,0.602405804,15.11465002,15.12667642,13.49177631,30.02209901,"Diego Alonso Saldana, Laurie Starck, Pascal Mougin, Bernard Rousseau, Nicolas Ferrando, and Benoit Creton. Prediction of density and viscosity of biofuel compounds using machine learning methods. Energy & fuels, 26(4):2416-2426, 2012."
1474,n-dodecane,CCCCCCCCCCCC,322.6,0.003099814,0.93,-0.031517051,0.721517553,0.33,21.78644554,0.605343582,15.01137056,15.02360343,13.37682966,30.04574257,"Diego Alonso Saldana, Laurie Starck, Pascal Mougin, Bernard Rousseau, Nicolas Ferrando, and Benoit Creton. Prediction of density and viscosity of biofuel compounds using machine learning methods. Energy & fuels, 26(4):2416-2426, 2012."
1475,n-dodecane,CCCCCCCCCCCC,333.1,0.003002101,0.8,-0.096910013,0.715646283,0.36,21.84692079,0.587414301,14.82350771,14.8351718,13.18212187,30.06144554,"Diego Alonso Saldana, Laurie Starck, Pascal Mougin, Bernard Rousseau, Nicolas Ferrando, and Benoit Creton. Prediction of density and viscosity of biofuel compounds using machine learning methods. Energy & fuels, 26(4):2416-2426, 2012."
1476,n-dodecane,CCCCCCCCCCCC,342.6,0.002918856,0.72,-0.142667504,0.706583701,0.45,21.9430198,0.584366059,14.57856049,14.59030719,12.94647987,30.23333663,"Diego Alonso Saldana, Laurie Starck, Pascal Mougin, Bernard Rousseau, Nicolas Ferrando, and Benoit Creton. Prediction of density and viscosity of biofuel compounds using machine learning methods. Energy & fuels, 26(4):2416-2426, 2012."
1477,n-dodecane,CCCCCCCCCCCC,352.9,0.002833664,0.63,-0.200659451,0.693066323,0.5,22.08044554,0.569142933,14.20777302,14.21920012,12.57812114,30.33465347,"Diego Alonso Saldana, Laurie Starck, Pascal Mougin, Bernard Rousseau, Nicolas Ferrando, and Benoit Creton. Prediction of density and viscosity of biofuel compounds using machine learning methods. Energy & fuels, 26(4):2416-2426, 2012."
1478,n-dodecane,CCCCCCCCCCCC,353.3,0.002830456,0.63,-0.200659451,0.690790104,0.77,22.10987129,0.556595357,14.14556316,14.15655802,12.51328058,30.46426733,"Diego Alonso Saldana, Laurie Starck, Pascal Mougin, Bernard Rousseau, Nicolas Ferrando, and Benoit Creton. Prediction of density and viscosity of biofuel compounds using machine learning methods. Energy & fuels, 26(4):2416-2426, 2012."
1479,n-dodecane,CCCCCCCCCCCC,373.5,0.002677376,0.51,-0.292429824,0.671860264,1.07,22.31081188,0.53781463,13.62581598,13.63646154,12.01032965,30.68562376,"Diego Alonso Saldana, Laurie Starck, Pascal Mougin, Bernard Rousseau, Nicolas Ferrando, and Benoit Creton. Prediction of density and viscosity of biofuel compounds using machine learning methods. Energy & fuels, 26(4):2416-2426, 2012."
1480,n-dodecane,CCCCCCCCCCCC,397.3,0.00251699,0.41,-0.387216143,0.656817332,1.17,22.46889109,0.520974792,13.20280223,13.21311433,11.61112904,30.97442574,"Diego Alonso Saldana, Laurie Starck, Pascal Mougin, Bernard Rousseau, Nicolas Ferrando, and Benoit Creton. Prediction of density and viscosity of biofuel compounds using machine learning methods. Energy & fuels, 26(4):2416-2426, 2012."
1481,lauric acid,CCCCCCCCCCCC(=O)O,333.15,0.003001651,5.61,0.748962861,0.869116426,0.13,21.60254455,10.96919904,16.56381249,19.86707073,22.40546714,29.56875248,"WE Wasburn. International critical tables of numerical data, physics, chemistry and technology. 1st electronic edition. Knovel: Norwich, NY, 2003."
1482,lauric acid,CCCCCCCCCCCC(=O)O,343.15,0.002914177,4.43,0.646403726,0.860148559,0.14,21.6910297,10.72881541,16.34614522,19.55313248,21.96316861,29.79318812,"WE Wasburn. International critical tables of numerical data, physics, chemistry and technology. 1st electronic edition. Knovel: Norwich, NY, 2003."
1483,lauric acid,CCCCCCCCCCCC(=O)O,353.15,0.002831658,3.62,0.558708571,0.850509064,0.21,21.76129703,10.52459606,16.10498329,19.23942755,21.5391998,29.89884158,"WE Wasburn. International critical tables of numerical data, physics, chemistry and technology. 1st electronic edition. Knovel: Norwich, NY, 2003."
1484,lauric acid,CCCCCCCCCCCC(=O)O,363.15,0.002753683,2.99,0.475671188,0.849040619,0.2,21.78046535,10.41757872,16.03252311,19.12036054,21.33760423,29.96234653,"WE Wasburn. International critical tables of numerical data, physics, chemistry and technology. 1st electronic edition. Knovel: Norwich, NY, 2003."
1485,methyl dodecanoate,CCCCCCCCCCCC(=O)OC,293.1,0.003411805,2.19,0.340444115,0.867349752,0.07,21.58088119,3.876185295,17.01612702,17.45234906,18.57294487,29.6739802,"Diego Alonso Saldana, Laurie Starck, Pascal Mougin, Bernard Rousseau, Nicolas Ferrando, and Benoit Creton. Prediction of density and viscosity of biofuel compounds using machine learning methods. Energy & fuels, 26(4):2416-2426, 2012."
1486,methyl dodecanoate,CCCCCCCCCCCC(=O)OC,311.0,0.003215434,1.52,0.181843588,0.855658267,0.09,21.67847525,3.720048369,16.67160324,17.08189468,18.08837589,29.9020396,"Diego Alonso Saldana, Laurie Starck, Pascal Mougin, Bernard Rousseau, Nicolas Ferrando, and Benoit Creton. Prediction of density and viscosity of biofuel compounds using machine learning methods. Energy & fuels, 26(4):2416-2426, 2012."
1487,methyl dodecanoate,CCCCCCCCCCCC(=O)OC,313.1,0.003193868,1.45,0.161368002,0.856696087,0.1,21.66985149,3.733455997,16.67920546,17.09233449,18.09270177,29.87279208,"Diego Alonso Saldana, Laurie Starck, Pascal Mougin, Bernard Rousseau, Nicolas Ferrando, and Benoit Creton. Prediction of density and viscosity of biofuel compounds using machine learning methods. Energy & fuels, 26(4):2416-2426, 2012."
1488,methyl dodecanoate,CCCCCCCCCCCC(=O)OC,333.1,0.003002101,1.07,0.029383778,0.844154456,0.11,21.77573267,3.588156478,16.31662964,16.70686638,17.60136226,30.10212871,"Diego Alonso Saldana, Laurie Starck, Pascal Mougin, Bernard Rousseau, Nicolas Ferrando, and Benoit Creton. Prediction of density and viscosity of biofuel compounds using machine learning methods. Energy & fuels, 26(4):2416-2426, 2012."
1489,methyl dodecanoate,CCCCCCCCCCCC(=O)OC,343.1,0.002914602,0.94,-0.026872146,0.828275387,0.2,21.90237624,3.484592334,15.89977772,16.27751928,17.07004974,30.21205941,"Diego Alonso Saldana, Laurie Starck, Pascal Mougin, Bernard Rousseau, Nicolas Ferrando, and Benoit Creton. Prediction of density and viscosity of biofuel compounds using machine learning methods. Energy & fuels, 26(4):2416-2426, 2012."
1490,methyl dodecanoate,CCCCCCCCCCCC(=O)OC,372.0,0.002688172,0.67,-0.173925197,0.797805861,0.4,22.18558416,3.225234473,15.11035699,15.45105948,16.06956282,30.76925743,"Diego Alonso Saldana, Laurie Starck, Pascal Mougin, Bernard Rousseau, Nicolas Ferrando, and Benoit Creton. Prediction of density and viscosity of biofuel compounds using machine learning methods. Energy & fuels, 26(4):2416-2426, 2012."
1491,dodecanoic acid 1-methyl-pentyl ester,CCCCCCCCCCCC(=O)OC(C)CCCC,298.15,0.003354016,5.4,0.73239376,0.858235861,0.07,21.43513861,2.479491378,16.70987302,16.89303634,23.20119693,29.39343564,"Valentin Goussard, Francois Duprat, Jean-Luc Ploix, G erard Dreyfus, Veronique Nardello-Rataj, and Jean-Marie Aubry. A new machine-learning tool for fast estimation of liquid viscosity. application to cosmetic oils. Journal of Chemical Information and Modeling, 60(4):2012-2023, 2020."
1492,dodecanoic acid 1-methyl-hexyl ester,CCCCCCCCCCCC(=O)OC(C)CCCCC,298.15,0.003354016,5.9,0.770852012,0.857917392,0.04,21.41964356,2.399385098,16.6745769,16.84660309,24.19447138,28.89316832,"Valentin Goussard, Francois Duprat, Jean-Luc Ploix, G erard Dreyfus, Veronique Nardello-Rataj, and Jean-Marie Aubry. A new machine-learning tool for fast estimation of liquid viscosity. application to cosmetic oils. Journal of Chemical Information and Modeling, 60(4):2012-2023, 2020."
1493,dodecanoic acid 1-methyl-nonyl ester,CCCCCCCCCCCC(=O)OC(C)CCCCCCCC,298.15,0.003354016,9.7,0.986771734,0.848288617,0.08,21.42490099,2.154508111,16.47468577,16.61518554,27.08421927,28.99588119,"Valentin Goussard, Francois Duprat, Jean-Luc Ploix, G erard Dreyfus, Veronique Nardello-Rataj, and Jean-Marie Aubry. A new machine-learning tool for fast estimation of liquid viscosity. application to cosmetic oils. Journal of Chemical Information and Modeling, 60(4):2012-2023, 2020."
1494,ethyl dodecanoate,CCCCCCCCCCCC(=O)OCC,273.1,0.003661662,5.94,0.773786445,0.884740751,0.04,21.36771287,3.577898728,17.62105246,17.98083862,20.48901774,29.04732673,"Diego Alonso Saldana, Laurie Starck, Pascal Mougin, Bernard Rousseau, Nicolas Ferrando, and Benoit Creton. Prediction of density and viscosity of biofuel compounds using machine learning methods. Energy & fuels, 26(4):2416-2426, 2012."
1495,ethyl dodecanoate,CCCCCCCCCCCC(=O)OCC,278.1,0.003595829,5.17,0.713490543,0.882226872,0.06,21.38416832,3.541789938,17.53701077,17.89131119,20.35705072,29.33721782,"Diego Alonso Saldana, Laurie Starck, Pascal Mougin, Bernard Rousseau, Nicolas Ferrando, and Benoit Creton. Prediction of density and viscosity of biofuel compounds using machine learning methods. Energy & fuels, 26(4):2416-2426, 2012."
1496,ethyl dodecanoate,CCCCCCCCCCCC(=O)OCC,283.1,0.003532321,4.46,0.649334859,0.877682747,0.05,21.40937624,3.493094461,17.40983396,17.75701267,20.17183124,29.39217822,"Diego Alonso Saldana, Laurie Starck, Pascal Mougin, Bernard Rousseau, Nicolas Ferrando, and Benoit Creton. Prediction of density and viscosity of biofuel compounds using machine learning methods. Energy & fuels, 26(4):2416-2426, 2012."